                         Program Version 5.0.0 -  RELEASE  -
|  1> !PBE D3BJ RIJCOSX def2-SVP def2/J TightSCF
|  2> *xyz 0 1
|  3> C         -0.77455        2.78833       -0.54394
|  4> C          0.69721        3.22791       -0.52513
|  5> F          1.48929        2.37470        0.19919
|  6> H          0.71600        4.26403       -0.13077
|  7> H          1.03615        3.33092       -1.58367
|  8> H         -1.34746        3.48478       -1.11982
|  9> H         -1.15078        2.75876        0.45729
| 10> H         -0.85058        1.81526       -0.98241
| 11> *
| 12>
| 13> %MaxCore 64000
| 14> %pal nprocs 4
| 15> end
| 16>
| 17> %scf
| 18>   MaxIter 150
| 19> end
| 20>
| 21>
| 22>                          ****END OF INPUT****

CARTESIAN COORDINATES (ANGSTROEM)
---------------------------------
  C     -0.774550    2.788330   -0.543940
  C      0.697210    3.227910   -0.525130
  F      1.489290    2.374700    0.199190
  H      0.716000    4.264030   -0.130770
  H      1.036150    3.330920   -1.583670
  H     -1.347460    3.484780   -1.119820
  H     -1.150780    2.758760    0.457290
  H     -0.850580    1.815260   -0.982410

 Total Charge           Charge          ....    0
 Multiplicity           Mult            ....    1
 Number of Electrons    NEL             ....   26
 Basis Dimension        Dim             ....   67

ORBITAL ENERGIES
----------------

  NO   OCC          E(Eh)            E(eV)
   0   2.0000     -24.239014      -659.5771
   1   2.0000      -9.965018      -271.1619
   2   2.0000      -9.888148      -269.0702
   3   2.0000      -1.066601       -29.0237
   4   2.0000      -0.682058       -18.5597
   5   2.0000      -0.555797       -15.1240
   6   2.0000      -0.444352       -12.0914
   7   2.0000      -0.430989       -11.7278
   8   2.0000      -0.392970       -10.6933
   9   2.0000      -0.349694        -9.5157
  10   2.0000      -0.344733        -9.3807
  11   2.0000      -0.276139        -7.5141
  12   2.0000      -0.271030        -7.3751
  13   0.0000       0.044066         1.1991
  14   0.0000       0.086838         2.3630
  15   0.0000       0.092231         2.5097
  16   0.0000       0.100058         2.7227
  17   0.0000       0.118991         3.2379

MULLIKEN ATOMIC CHARGES
-----------------------
   0 C :   -0.060880
   1 C :    0.178884
   2 F :   -0.229719
   3 H :    0.011899
   4 H :    0.013483
   5 H :    0.020638
   6 H :    0.032965
   7 H :    0.032730
Sum of atomic charges:    0.0000000

LOEWDIN ATOMIC CHARGES
----------------------
   0 C :   -0.081648
   1 C :    0.090329
   2 F :   -0.114844
   3 H :    0.009682
   4 H :    0.010724
   5 H :    0.031926
   6 H :    0.027074
   7 H :    0.026757

  Mayer bond orders larger than 0.100000
B(  0-C ,  1-C ) :   1.1079 B(  0-C ,  5-H ) :   0.9535 B(  0-C ,  6-H ) :   0.9671
B(  0-C ,  7-H ) :   0.9672 B(  1-C ,  2-F ) :   1.0378 B(  1-C ,  3-H ) :   0.9480
B(  1-C ,  4-H ) :   0.9477

Dispersion correction           -0.003481434
FINAL SINGLE POINT ENERGY      -178.708837208640

DIPOLE MOMENT
-------------
                                X             Y             Z
Electronic contribution:      4.48645      -1.71101       2.05361
Nuclear contribution   :     -4.89513       2.05627      -2.36166
                        -----------------------------------------
Total Dipole Moment    :     -0.40869       0.34526      -0.30805
                        -----------------------------------------
Magnitude (a.u.)       :      0.61736
Magnitude (Debye)      :      1.56919

Rotational constants in cm-1:     1.247826     0.304622     0.269019
Rotational constants in MHz : 37408.889506  9132.346906  8064.979146

                             ****ORCA TERMINATED NORMALLY****
TOTAL RUN TIME: 0 days 0 hours 0 minutes 5 seconds 386 msec
