                         Program Version 5.0.0 -  RELEASE  -
|  1> !PBE D3BJ RIJCOSX def2-SVP def2/J TightSCF
|  2> *xyz 0 1
|  3> C          3.95643        0.50147       -0.37910
|  4> H          3.16840        0.02920        0.20738
|  5> C          3.80389        1.96157       -0.15675
|  6> C          3.84232        0.14849       -1.85406
|  7> H          4.92323        0.17798        0.00937
|  8> H          4.20643        2.24441        0.74536
|  9> H          2.80827        2.21132       -0.09610
| 10> H          4.28076        2.50155       -0.89104
| 11> H          4.62951        0.62800       -2.39748
| 12> H          2.89665        0.48102       -2.22825
| 13> H          3.92053       -0.91187       -1.97413
| 14> *
| 15>
| 16> %MaxCore 64000
| 17> %pal nprocs 4
| 18> end
| 19>
| 20> %scf
| 21>   MaxIter 150
| 22> end
| 23>
| 24>
| 25>                          ****END OF INPUT****

CARTESIAN COORDINATES (ANGSTROEM)
---------------------------------
  C      3.956430    0.501470   -0.379100
  H      3.168400    0.029200    0.207380
  C      3.803890    1.961570   -0.156750
  C      3.842320    0.148490   -1.854060
  H      4.923230    0.177980    0.009370
  H      4.206430    2.244410    0.745360
  H      2.808270    2.211320   -0.096100
  H      4.280760    2.501550   -0.891040
  H      4.629510    0.628000   -2.397480
  H      2.896650    0.481020   -2.228250
  H      3.920530   -0.911870   -1.974130

 Total Charge           Charge          ....    0
 Multiplicity           Mult            ....    1
 Number of Electrons    NEL             ....   26
 Basis Dimension        Dim             ....   82

ORBITAL ENERGIES
----------------

  NO   OCC          E(Eh)            E(eV)
   0   2.0000      -9.880661      -268.8665
   1   2.0000      -9.873214      -268.6638
   2   2.0000      -9.857015      -268.2230
   3   2.0000      -0.710554       -19.3352
   4   2.0000      -0.614577       -16.7235
   5   2.0000      -0.517360       -14.0781
   6   2.0000      -0.416210       -11.3257
   7   2.0000      -0.394528       -10.7357
   8   2.0000      -0.353964        -9.6318
   9   2.0000      -0.341703        -9.2982
  10   2.0000      -0.293380        -7.9833
  11   2.0000      -0.290524        -7.9056
  12   2.0000      -0.280241        -7.6257
  13   0.0000       0.044037         1.1983
  14   0.0000       0.088194         2.3999
  15   0.0000       0.091556         2.4914
  16   0.0000       0.096813         2.6344
  17   0.0000       0.123526         3.3613

MULLIKEN ATOMIC CHARGES
-----------------------
   0 C :   -0.096202
   1 H :    0.011607
   2 C :    0.059451
   3 C :   -0.007310
   4 H :    0.012510
   5 H :   -0.011202
   6 H :   -0.003720
   7 H :   -0.008081
   8 H :    0.015806
   9 H :    0.013314
  10 H :    0.013826
Sum of atomic charges:    0.0000000

LOEWDIN ATOMIC CHARGES
----------------------
   0 C :   -0.046295
   1 H :    0.022408
   2 C :   -0.051455
   3 C :   -0.059060
   4 H :    0.020531
   5 H :    0.017879
   6 H :    0.017169
   7 H :    0.013863
   8 H :    0.021469
   9 H :    0.021285
  10 H :    0.022206

  Mayer bond orders larger than 0.100000
B(  0-C ,  1-H ) :   0.9480 B(  0-C ,  2-C ) :   1.1268 B(  0-C ,  3-C ) :   1.1215
B(  0-C ,  4-H ) :   0.9495 B(  2-C ,  5-H ) :   0.9533 B(  2-C ,  6-H ) :   0.9646
B(  2-C ,  7-H ) :   0.9656 B(  3-C ,  8-H ) :   0.9677 B(  3-C ,  9-H ) :   0.9711
B(  3-C , 10-H ) :   0.9639

Dispersion correction           -0.006158132
FINAL SINGLE POINT ENERGY      -118.854153655504

DIPOLE MOMENT
-------------
                                X             Y             Z
Electronic contribution:      0.07843      -0.29045       0.22597
Nuclear contribution   :     -0.08172       0.30475      -0.19303
                        -----------------------------------------
Total Dipole Moment    :     -0.00329       0.01430       0.03294
                        -----------------------------------------
Magnitude (a.u.)       :      0.03606
Magnitude (Debye)      :      0.09165

Rotational constants in cm-1:     1.020248     0.295755     0.261591
Rotational constants in MHz : 30586.266829  8866.511639  7842.297953

                             ****ORCA TERMINATED NORMALLY****
TOTAL RUN TIME: 0 days 0 hours 0 minutes 6 seconds 381 msec
