                         Program Version 5.0.0 -  RELEASE  -
|  1> !PBE D3BJ RIJCOSX def2-TZVP def2/J TightSCF xyzfile
|  2>
|  3> *xyzfile 0 1 D.xyz
|  4>
|  5> %MaxCore 64000
|  6>
|  7> %pal nprocs 18
|  8> end
|  9>
| 10> %scf
| 11>   MaxIter 150
| 12> end
| 13>
| 14>
| 15>                          ****END OF INPUT****

CARTESIAN COORDINATES (ANGSTROEM)
---------------------------------
  C      3.956426    0.501466   -0.379100
  H      3.168398    0.029201    0.207383
  C      3.803893    1.961572   -0.156747
  C      3.842322    0.148490   -1.854058
  H      4.923231    0.177982    0.009371
  H      4.620021    0.694502   -2.402150
  H      4.096015   -0.910930   -1.955103
  C      2.475619    0.412708   -2.485377
  H      2.174689    1.445076   -2.287971
  C      1.383931   -0.532740   -1.995203
  H      2.575613    0.318574   -3.571460
  H      1.264698   -0.412309   -0.915491
  H      1.705223   -1.566885   -2.164984
  C      0.031398   -0.317260   -2.677791
  C     -0.587292    1.060853   -2.436460
  H     -0.662815   -1.089530   -2.329985
  H      0.149465   -0.478040   -3.755648
  H      0.104376    1.828590   -2.793130
  C     -0.951213    1.334978   -0.972500
  H     -1.478832    1.161355   -3.062484
  H     -0.317007    0.741648   -0.311389
  H     -1.980916    1.012842   -0.788958
  C     -0.774550    2.788332   -0.543943
  H     -1.352609    3.459372   -1.192585
  H     -1.171014    2.902331    0.469968
  C      0.697208    3.227911   -0.525126
  F      1.489294    2.374703    0.199189
  H      0.715998    4.264030   -0.130774
  H      1.036148    3.330920   -1.583669
  H      4.206425    2.244406    0.745359
  H      2.808269    2.211323   -0.096097
  H      4.280757    2.501552   -0.891037

 Total Charge           Charge          ....    0
 Multiplicity           Mult            ....    1
 Number of Electrons    NEL             ....   90
 Basis Dimension        Dim             ....  467

ORBITAL ENERGIES
----------------

  NO   OCC          E(Eh)            E(eV)
   0   2.0000     -24.267172      -660.3433
   1   2.0000      -9.964718      -271.1538
   2   2.0000      -9.891724      -269.1675
   3   2.0000      -9.879151      -268.8254
   4   2.0000      -9.875767      -268.7333
   5   2.0000      -9.872794      -268.6524
   6   2.0000      -9.867134      -268.4984
   7   2.0000      -9.864883      -268.4371
   8   2.0000      -9.859275      -268.2845
   9   2.0000      -9.848872      -268.0014
  10   2.0000      -9.796166      -266.5672
  11   2.0000      -1.132093       -30.8058
  12   2.0000      -0.746189       -20.3048
  13   2.0000      -0.727608       -19.7992
  14   2.0000      -0.696786       -18.9605
  15   2.0000      -0.668009       -18.1774
  16   2.0000      -0.623576       -16.9684
  17   2.0000      -0.600143       -16.3307
  18   2.0000      -0.560392       -15.2491
  19   2.0000      -0.540811       -14.7162
  20   2.0000      -0.506442       -13.7810
  21   2.0000      -0.495018       -13.4701
  22   2.0000      -0.473184       -12.8760
  23   2.0000      -0.457568       -12.4510
  24   2.0000      -0.440880       -11.9970
  25   2.0000      -0.419010       -11.4018
  26   2.0000      -0.407835       -11.0978
  27   2.0000      -0.400291       -10.8925
  28   2.0000      -0.382659       -10.4127
  29   2.0000      -0.377271       -10.2661
  30   2.0000      -0.363998        -9.9049
  31   2.0000      -0.348108        -9.4725
  32   2.0000      -0.340498        -9.2654
  33   2.0000      -0.331328        -9.0159
  34   2.0000      -0.321554        -8.7499
  35   2.0000      -0.310307        -8.4439
  36   2.0000      -0.306222        -8.3327
  37   2.0000      -0.298875        -8.1328
  38   2.0000      -0.283273        -7.7083
  39   2.0000      -0.279263        -7.5991
  40   2.0000      -0.273570        -7.4442
  41   2.0000      -0.272842        -7.4244
  42   2.0000      -0.258510        -7.0344
  43   2.0000      -0.257315        -7.0019
  44   2.0000      -0.231521        -6.3000
  45   0.0000       0.010837         0.2949
  46   0.0000       0.020144         0.5481
  47   0.0000       0.028998         0.7891
  48   0.0000       0.036044         0.9808
  49   0.0000       0.044935         1.2227

MULLIKEN ATOMIC CHARGES
-----------------------
   0 C :   -0.157781
   1 H :    0.077031
   2 C :   -0.422894
   3 C :   -0.127975
   4 H :    0.080755
   5 H :    0.087807
   6 H :    0.072231
   7 C :   -0.173566
   8 H :    0.075831
   9 C :   -0.225611
  10 H :    0.078088
  11 H :    0.093334
  12 H :    0.087357
  13 C :   -0.106609
  14 C :   -0.233142
  15 H :    0.085259
  16 H :    0.085220
  17 H :    0.098185
  18 C :   -0.154657
  19 H :    0.094571
  20 H :    0.098481
  21 H :    0.099723
  22 C :   -0.174745
  23 H :    0.096428
  24 H :    0.101577
  25 C :   -0.052469
  26 F :   -0.147120
  27 H :    0.110384
  28 H :    0.100704
  29 H :    0.093377
  30 H :    0.176613
  31 H :    0.083611
Sum of atomic charges:    0.0000000

LOEWDIN ATOMIC CHARGES
----------------------
   0 C :   -0.307905
   1 H :    0.132814
   2 C :   -0.328482
   3 C :   -0.273071
   4 H :    0.131515
   5 H :    0.136275
   6 H :    0.134805
   7 C :   -0.269347
   8 H :    0.133387
   9 C :   -0.272488
  10 H :    0.136195
  11 H :    0.132830
  12 H :    0.138343
  13 C :   -0.271764
  14 C :   -0.269422
  15 H :    0.137628
  16 H :    0.137265
  17 H :    0.133919
  18 C :   -0.271145
  19 H :    0.136089
  20 H :    0.140668
  21 H :    0.138004
  22 C :   -0.281432
  23 H :    0.144442
  24 H :    0.140006
  25 C :   -0.360165
  26 F :    0.198896
  27 H :    0.126408
  28 H :    0.122304
  29 H :    0.105457
  30 H :    0.063737
  31 H :    0.104233

  Mayer bond orders larger than 0.100000
B(  0-C ,  1-H ) :   0.9697 B(  0-C ,  2-C ) :   0.9733 B(  0-C ,  3-C ) :   1.0212
B(  0-C ,  4-H ) :   0.9477 B(  2-C , 29-H ) :   0.9617 B(  2-C , 30-H ) :   0.9619
B(  2-C , 31-H ) :   0.9609 B(  3-C ,  5-H ) :   0.9537 B(  3-C ,  6-H ) :   0.9445
B(  3-C ,  7-C ) :   1.0091 B(  7-C ,  8-H ) :   0.9583 B(  7-C ,  9-C ) :   1.0087
B(  7-C , 10-H ) :   0.9404 B(  9-C , 11-H ) :   0.9656 B(  9-C , 12-H ) :   0.9430
B(  9-C , 13-C ) :   1.0187 B( 13-C , 14-C ) :   0.9930 B( 13-C , 15-H ) :   0.9457
B( 13-C , 16-H ) :   0.9447 B( 14-C , 17-H ) :   0.9783 B( 14-C , 18-C ) :   0.9784
B( 14-C , 19-H ) :   0.9421 B( 18-C , 20-H ) :   0.9614 B( 18-C , 21-H ) :   0.9470
B( 18-C , 22-C ) :   1.0043 B( 22-C , 23-H ) :   0.9336 B( 22-C , 24-H ) :   0.9460
B( 22-C , 25-C ) :   1.0282 B( 25-C , 26-F ) :   0.9665 B( 25-C , 27-H ) :   0.9558
B( 25-C , 28-H ) :   0.9600

Dispersion correction           -0.032480341
FINAL SINGLE POINT ENERGY      -493.044328913390

DIPOLE MOMENT
-------------
                                X             Y             Z
Electronic contribution:     -1.93177       3.25959       4.30836
Nuclear contribution   :      1.09293      -2.80761      -4.51228
                        -----------------------------------------
Total Dipole Moment    :     -0.83884       0.45197      -0.20392
                        -----------------------------------------
Magnitude (a.u.)       :      0.97443
Magnitude (Debye)      :      2.47680

Rotational constants in cm-1:     0.040502     0.027818     0.018259
Rotational constants in MHz :  1214.218058   833.972871   547.398614

                             ****ORCA TERMINATED NORMALLY****
TOTAL RUN TIME: 0 days 0 hours 0 minutes 14 seconds 480 msec
