                         Program Version 5.0.0 -  RELEASE  -
|  1> !PBE D3BJ RIJCOSX def2-SVP def2/J TightSCF
|  2> *xyz -1 1
|  3> C         -0.10608        1.76991       -4.08984
|  4> C         -0.25875        1.00432       -5.40983
|  5> C          0.39596       -0.37070       -5.33994
|  6> H          0.23915        1.56939       -6.20125
|  7> H         -1.30936        0.88869       -5.68245
|  8> O         -0.32633       -1.39040       -5.49128
|  9> O          1.61941       -0.40073       -5.03683
| 10> H         -0.57627        2.72718       -4.17630
| 11> H          0.93321        1.90140       -3.87192
| 12> H         -0.56868        1.21534       -3.30031
| 13> *
| 14> %MaxCore 64000
| 15>
| 16> %pal nprocs 4
| 17> end
| 18>
| 19> %scf
| 20>   MaxIter 150
| 21> end
| 22>
| 23>
| 24>                          ****END OF INPUT****

CARTESIAN COORDINATES (ANGSTROEM)
---------------------------------
  C     -0.106080    1.769910   -4.089840
  C     -0.258750    1.004320   -5.409830
  C      0.395960   -0.370700   -5.339940
  H      0.239150    1.569390   -6.201250
  H     -1.309360    0.888690   -5.682450
  O     -0.326330   -1.390400   -5.491280
  O      1.619410   -0.400730   -5.036830
  H     -0.576270    2.727180   -4.176300
  H      0.933210    1.901400   -3.871920
  H     -0.568680    1.215340   -3.300310

 Total Charge           Charge          ....   -1
 Multiplicity           Mult            ....    1
 Number of Electrons    NEL             ....   40
 Basis Dimension        Dim             ....   95

ORBITAL ENERGIES
----------------

  NO   OCC          E(Eh)            E(eV)
   0   2.0000     -18.456514      -502.2273
   1   2.0000     -18.456274      -502.2208
   2   2.0000      -9.733171      -264.8530
   3   2.0000      -9.721086      -264.5242
   4   2.0000      -9.700694      -263.9693
   5   2.0000      -0.682112       -18.5612
   6   2.0000      -0.591506       -16.0957
   7   2.0000      -0.510451       -13.8901
   8   2.0000      -0.386819       -10.5259
   9   2.0000      -0.243978        -6.6390
  10   2.0000      -0.226913        -6.1746
  11   2.0000      -0.183395        -4.9904
  12   2.0000      -0.161310        -4.3895
  13   2.0000      -0.144509        -3.9323
  14   2.0000      -0.126626        -3.4457
  15   2.0000      -0.094492        -2.5713
  16   2.0000      -0.087620        -2.3843
  17   2.0000       0.030006         0.8165
  18   2.0000       0.040142         1.0923
  19   2.0000       0.061522         1.6741
  20   0.0000       0.197579         5.3764
  21   0.0000       0.245027         6.6675
  22   0.0000       0.249765         6.7965
  23   0.0000       0.260012         7.0753
  24   0.0000       0.264961         7.2099

MULLIKEN ATOMIC CHARGES
-----------------------
   0 C :    0.010410
   1 C :    0.016807
   2 C :   -0.052311
   3 H :   -0.046112
   4 H :   -0.065357
   5 O :   -0.386919
   6 O :   -0.398206
   7 H :   -0.050902
   8 H :   -0.014094
   9 H :   -0.013317
Sum of atomic charges:   -1.0000000

LOEWDIN ATOMIC CHARGES
----------------------
   0 C :   -0.068621
   1 C :   -0.098396
   2 C :   -0.094234
   3 H :    0.001812
   4 H :   -0.008472
   5 O :   -0.366408
   6 O :   -0.374082
   7 H :   -0.008439
   8 H :    0.006829
   9 H :    0.010011

  Mayer bond orders larger than 0.100000
B(  0-C ,  1-C ) :   1.1080 B(  0-C ,  7-H ) :   0.9550 B(  0-C ,  8-H ) :   0.9514
B(  0-C ,  9-H ) :   0.9675 B(  1-C ,  2-C ) :   0.9134 B(  1-C ,  3-H ) :   0.9189
B(  1-C ,  4-H ) :   0.9171 B(  2-C ,  5-O ) :   1.8866 B(  2-C ,  6-O ) :   1.8316
B(  5-O ,  6-O ) :   0.1385

Dispersion correction           -0.006554504
FINAL SINGLE POINT ENERGY      -267.308788475911

DIPOLE MOMENT
-------------
                                X             Y             Z
Electronic contribution:      1.88098      -5.66588      -1.71664
Nuclear contribution   :     -2.46071       7.20791       1.95694
                        -----------------------------------------
Total Dipole Moment    :     -0.57974       1.54204       0.24030
                        -----------------------------------------
Magnitude (a.u.)       :      1.66485
Magnitude (Debye)      :      4.23170

Rotational constants in cm-1:     0.309435     0.135317     0.107436
Rotational constants in MHz :  9276.637721  4056.700783  3220.846587

                             ****ORCA TERMINATED NORMALLY****
TOTAL RUN TIME: 0 days 0 hours 0 minutes 6 seconds 892 msec
