                         Program Version 5.0.0 -  RELEASE  -
|  1> !PBE D3BJ RIJCOSX def2-SVP def2/J TightSCF
|  2> *xyz 1 1
|  3> C          0.81607       -2.10149       -2.18655
|  4> H          1.69623       -2.36869       -1.60046
|  5> N          1.10055       -2.46749       -3.59927
|  6> C          0.51624       -0.61363       -2.03937
|  7> H         -0.02007       -2.71285       -1.84084
|  8> H          1.70061       -1.75723       -4.07838
|  9> H          0.29386       -2.35977       -4.25632
| 10> H          1.50132       -3.42848       -3.69491
| 11> H         -0.34841       -0.36504       -2.61858
| 12> H          1.35358       -0.04503       -2.38643
| 13> H          0.33317       -0.38682       -1.00984
| 14> *
| 15> %MaxCore 64000
| 16>
| 17> %pal nprocs 4
| 18> end
| 19>
| 20> %scf
| 21>   MaxIter 150
| 22> end
| 23>
| 24>
| 25>                          ****END OF INPUT****

CARTESIAN COORDINATES (ANGSTROEM)
---------------------------------
  C      0.816070   -2.101490   -2.186550
  H      1.696230   -2.368690   -1.600460
  N      1.100550   -2.467490   -3.599270
  C      0.516240   -0.613630   -2.039370
  H     -0.020070   -2.712850   -1.840840
  H      1.700610   -1.757230   -4.078380
  H      0.293860   -2.359770   -4.256320
  H      1.501320   -3.428480   -3.694910
  H     -0.348410   -0.365040   -2.618580
  H      1.353580   -0.045030   -2.386430
  H      0.333170   -0.386820   -1.009840

 Total Charge           Charge          ....    1
 Multiplicity           Mult            ....    1
 Number of Electrons    NEL             ....   26
 Basis Dimension        Dim             ....   82

ORBITAL ENERGIES
----------------

  NO   OCC          E(Eh)            E(eV)
   0   2.0000     -14.338332      -390.1659
   1   2.0000     -10.149077      -276.1704
   2   2.0000     -10.072710      -274.0924
   3   2.0000      -1.124936       -30.6111
   4   2.0000      -0.892142       -24.2764
   5   2.0000      -0.788677       -21.4610
   6   2.0000      -0.738121       -20.0853
   7   2.0000      -0.722840       -19.6695
   8   2.0000      -0.655027       -17.8242
   9   2.0000      -0.590317       -16.0634
  10   2.0000      -0.539924       -14.6921
  11   2.0000      -0.525401       -14.2969
  12   2.0000      -0.506772       -13.7900
  13   0.0000      -0.212153        -5.7730
  14   0.0000      -0.159526        -4.3409
  15   0.0000      -0.152630        -4.1533
  16   0.0000      -0.117262        -3.1909
  17   0.0000      -0.081962        -2.2303

MULLIKEN ATOMIC CHARGES
-----------------------
   0 C :   -0.040987
   1 H :    0.106004
   2 N :    0.006184
   3 C :   -0.053505
   4 H :    0.109578
   5 H :    0.202654
   6 H :    0.206199
   7 H :    0.228019
   8 H :    0.066942
   9 H :    0.067117
  10 H :    0.101795
Sum of atomic charges:    1.0000000

LOEWDIN ATOMIC CHARGES
----------------------
   0 C :    0.040830
   1 H :    0.058756
   2 N :    0.280971
   3 C :   -0.046692
   4 H :    0.059498
   5 H :    0.147926
   6 H :    0.149975
   7 H :    0.155615
   8 H :    0.042502
   9 H :    0.042343
  10 H :    0.068276

  Mayer bond orders larger than 0.100000
B(  0-C ,  1-H ) :   0.9421 B(  0-C ,  2-N ) :   0.9389 B(  0-C ,  3-C ) :   1.1184
B(  0-C ,  4-H ) :   0.9420 B(  2-N ,  5-H ) :   0.9270 B(  2-N ,  6-H ) :   0.9269
B(  2-N ,  7-H ) :   0.9223 B(  3-C ,  8-H ) :   0.9669 B(  3-C ,  9-H ) :   0.9620
B(  3-C , 10-H ) :   0.9491

Dispersion correction           -0.006143002
FINAL SINGLE POINT ENERGY      -135.245184960071

DIPOLE MOMENT
-------------
                                X             Y             Z
Electronic contribution:      0.42915      -1.45095      -1.10790
Nuclear contribution   :     -0.07506       0.54337      -0.16191
                        -----------------------------------------
Total Dipole Moment    :      0.35410      -0.90758      -1.26981
                        -----------------------------------------
Magnitude (a.u.)       :      1.60047
Magnitude (Debye)      :      4.06807

Rotational constants in cm-1:     0.999557     0.280801     0.246932
Rotational constants in MHz : 29965.963633  8418.199581  7402.841054

                             ****ORCA TERMINATED NORMALLY****
TOTAL RUN TIME: 0 days 0 hours 0 minutes 6 seconds 446 msec
