                         Program Version 5.0.0 -  RELEASE  -
|  1> !PBE D3BJ RIJCOSX def2-SVP def2/J TightSCF
|  2> *xyz 0 1
|  3> C         -0.10608        1.76991       -4.08984
|  4> C         -0.25875        1.00432       -5.40983
|  5> C          0.39596       -0.37070       -5.33994
|  6> H          0.23915        1.56939       -6.20125
|  7> H         -1.30936        0.88869       -5.68245
|  8> F         -0.32633       -1.39040       -5.49128
|  9> O          1.61941       -0.40073       -5.03683
| 10> H         -0.57627        2.72718       -4.17630
| 11> H          0.93321        1.90140       -3.87192
| 12> H         -0.56868        1.21534       -3.30031
| 13> *
| 14> %MaxCore 64000
| 15>
| 16> %pal nprocs 4
| 17> end
| 18>
| 19> %scf
| 20>   MaxIter 150
| 21> end
| 22>
| 23>
| 24>                          ****END OF INPUT****

CARTESIAN COORDINATES (ANGSTROEM)
---------------------------------
  C     -0.106080    1.769910   -4.089840
  C     -0.258750    1.004320   -5.409830
  C      0.395960   -0.370700   -5.339940
  H      0.239150    1.569390   -6.201250
  H     -1.309360    0.888690   -5.682450
  F     -0.326330   -1.390400   -5.491280
  O      1.619410   -0.400730   -5.036830
  H     -0.576270    2.727180   -4.176300
  H      0.933210    1.901400   -3.871920
  H     -0.568680    1.215340   -3.300310

 Total Charge           Charge          ....    0
 Multiplicity           Mult            ....    1
 Number of Electrons    NEL             ....   40
 Basis Dimension        Dim             ....   95

ORBITAL ENERGIES
----------------

  NO   OCC          E(Eh)            E(eV)
   0   2.0000     -24.324198      -661.8951
   1   2.0000     -18.752615      -510.2846
   2   2.0000     -10.050799      -273.4962
   3   2.0000      -9.921316      -269.9727
   4   2.0000      -9.898812      -269.3604
   5   2.0000      -1.187410       -32.3111
   6   2.0000      -0.921934       -25.0871
   7   2.0000      -0.717122       -19.5139
   8   2.0000      -0.610233       -16.6053
   9   2.0000      -0.563456       -15.3324
  10   2.0000      -0.479292       -13.0422
  11   2.0000      -0.463876       -12.6227
  12   2.0000      -0.438065       -11.9204
  13   2.0000      -0.409043       -11.1306
  14   2.0000      -0.375386       -10.2148
  15   2.0000      -0.349645        -9.5143
  16   2.0000      -0.327038        -8.8992
  17   2.0000      -0.320989        -8.7346
  18   2.0000      -0.295826        -8.0498
  19   2.0000      -0.231399        -6.2967
  20   0.0000      -0.058187        -1.5833
  21   0.0000       0.040398         1.0993
  22   0.0000       0.082116         2.2345
  23   0.0000       0.085744         2.3332
  24   0.0000       0.103344         2.8121

MULLIKEN ATOMIC CHARGES
-----------------------
   0 C :   -0.010609
   1 C :   -0.075471
   2 C :    0.164143
   3 H :    0.061048
   4 H :    0.023407
   5 F :   -0.035482
   6 O :   -0.230013
   7 H :    0.028482
   8 H :    0.046340
   9 H :    0.028155
Sum of atomic charges:    0.0000000

LOEWDIN ATOMIC CHARGES
----------------------
   0 C :   -0.042977
   1 C :   -0.077894
   2 C :    0.063699
   3 H :    0.052494
   4 H :    0.027528
   5 F :    0.064938
   6 O :   -0.177376
   7 H :    0.029448
   8 H :    0.032518
   9 H :    0.027621

  Mayer bond orders larger than 0.100000
B(  0-C ,  1-C ) :   1.1046 B(  0-C ,  7-H ) :   0.9626 B(  0-C ,  8-H ) :   0.9648
B(  0-C ,  9-H ) :   0.9733 B(  1-C ,  2-C ) :   1.0046 B(  1-C ,  3-H ) :   0.9213
B(  1-C ,  4-H ) :   0.9269 B(  2-C ,  5-F ) :   1.2343 B(  2-C ,  6-O ) :   2.0656

Dispersion correction           -0.006229910
FINAL SINGLE POINT ENERGY      -291.850372775466

DIPOLE MOMENT
-------------
                                X             Y             Z
Electronic contribution:      0.94788      -8.30136      -2.55985
Nuclear contribution   :     -1.80992       8.85192       2.42184
                        -----------------------------------------
Total Dipole Moment    :     -0.86205       0.55056      -0.13801
                        -----------------------------------------
Magnitude (a.u.)       :      1.03213
Magnitude (Debye)      :      2.62347

Rotational constants in cm-1:     0.298360     0.128849     0.102271
Rotational constants in MHz :  8944.606599  3862.796179  3066.020510

                             ****ORCA TERMINATED NORMALLY****
TOTAL RUN TIME: 0 days 0 hours 0 minutes 7 seconds 137 msec
