                         Program Version 5.0.0 -  RELEASE  -
|  1> !PBE D3BJ RIJCOSX def2-SVP def2/J TightSCF
|  2> *xyz 0 1
|  3> C          0.81607       -2.10149       -2.18655
|  4> H          1.69623       -2.36869       -1.60046
|  5> C          1.10055       -2.46749       -3.59927
|  6> C          0.51624       -0.61363       -2.03937
|  7> H         -0.02007       -2.71285       -1.84084
|  8> H          1.70061       -1.75723       -4.07838
|  9> H          0.29386       -2.35977       -4.25632
| 10> H          1.50132       -3.42848       -3.69491
| 11> H         -0.34841       -0.36504       -2.61858
| 12> H          1.35358       -0.04503       -2.38643
| 13> H          0.33317       -0.38682       -1.00984
| 14> *
| 15> %MaxCore 64000
| 16>
| 17> %pal nprocs 4
| 18> end
| 19>
| 20> %scf
| 21>   MaxIter 150
| 22> end
| 23>
| 24>
| 25>                          ****END OF INPUT****

CARTESIAN COORDINATES (ANGSTROEM)
---------------------------------
  C      0.816070   -2.101490   -2.186550
  H      1.696230   -2.368690   -1.600460
  C      1.100550   -2.467490   -3.599270
  C      0.516240   -0.613630   -2.039370
  H     -0.020070   -2.712850   -1.840840
  H      1.700610   -1.757230   -4.078380
  H      0.293860   -2.359770   -4.256320
  H      1.501320   -3.428480   -3.694910
  H     -0.348410   -0.365040   -2.618580
  H      1.353580   -0.045030   -2.386430
  H      0.333170   -0.386820   -1.009840

 Total Charge           Charge          ....    0
 Multiplicity           Mult            ....    1
 Number of Electrons    NEL             ....   26
 Basis Dimension        Dim             ....   82

ORBITAL ENERGIES
----------------

  NO   OCC          E(Eh)            E(eV)
   0   2.0000      -9.883429      -268.9418
   1   2.0000      -9.874602      -268.7016
   2   2.0000      -9.862612      -268.3753
   3   2.0000      -0.708507       -19.2795
   4   2.0000      -0.613074       -16.6826
   5   2.0000      -0.522095       -14.2069
   6   2.0000      -0.407863       -11.0985
   7   2.0000      -0.394831       -10.7439
   8   2.0000      -0.364345        -9.9143
   9   2.0000      -0.328208        -8.9310
  10   2.0000      -0.297359        -8.0916
  11   2.0000      -0.293902        -7.9975
  12   2.0000      -0.275832        -7.5058
  13   0.0000       0.043947         1.1959
  14   0.0000       0.089910         2.4466
  15   0.0000       0.091001         2.4763
  16   0.0000       0.092973         2.5299
  17   0.0000       0.123431         3.3587

MULLIKEN ATOMIC CHARGES
-----------------------
   0 C :   -0.074824
   1 H :    0.014123
   2 C :    0.029843
   3 C :   -0.014205
   4 H :    0.016257
   5 H :   -0.014997
   6 H :   -0.011342
   7 H :    0.008662
   8 H :    0.015361
   9 H :    0.016403
  10 H :    0.014719
Sum of atomic charges:   -0.0000000

LOEWDIN ATOMIC CHARGES
----------------------
   0 C :   -0.046363
   1 H :    0.023052
   2 C :   -0.063807
   3 C :   -0.058829
   4 H :    0.023016
   5 H :    0.018209
   6 H :    0.018582
   7 H :    0.019714
   8 H :    0.021687
   9 H :    0.021897
  10 H :    0.022841

  Mayer bond orders larger than 0.100000
B(  0-C ,  1-H ) :   0.9461 B(  0-C ,  2-C ) :   1.1282 B(  0-C ,  3-C ) :   1.1184
B(  0-C ,  4-H ) :   0.9461 B(  2-C ,  5-H ) :   0.9572 B(  2-C ,  6-H ) :   0.9563
B(  2-C ,  7-H ) :   0.9624 B(  3-C ,  8-H ) :   0.9724 B(  3-C ,  9-H ) :   0.9687
B(  3-C , 10-H ) :   0.9638

Dispersion correction           -0.006140592
FINAL SINGLE POINT ENERGY      -118.858195242638

DIPOLE MOMENT
-------------
                                X             Y             Z
Electronic contribution:     -0.01914      -0.29774       0.46235
Nuclear contribution   :      0.01737       0.30387      -0.47422
                        -----------------------------------------
Total Dipole Moment    :     -0.00177       0.00613      -0.01186
                        -----------------------------------------
Magnitude (a.u.)       :      0.01347
Magnitude (Debye)      :      0.03424

Rotational constants in cm-1:     1.006891     0.295208     0.258491
Rotational constants in MHz : 30185.831813  8850.104914  7749.351732

                             ****ORCA TERMINATED NORMALLY****
TOTAL RUN TIME: 0 days 0 hours 0 minutes 6 seconds 374 msec
