                         Program Version 5.0.0 -  RELEASE  -
|  1> !PBE D3BJ RIJCOSX def2-SVP def2/J TightSCF
|  2> *xyz 0 1
|  3> C         -0.10608        1.76991       -4.08984
|  4> C         -0.25875        1.00432       -5.40983
|  5> C          0.39596       -0.37070       -5.33994
|  6> H          0.23915        1.56939       -6.20125
|  7> H         -1.30936        0.88869       -5.68245
|  8> O         -0.32633       -1.39040       -5.49128
|  9> F          1.61941       -0.40073       -5.03683
| 10> H         -0.57627        2.72718       -4.17630
| 11> H          0.93321        1.90140       -3.87192
| 12> H         -0.56868        1.21534       -3.30031
| 13> *
| 14> %MaxCore 64000
| 15>
| 16> %pal nprocs 4
| 17> end
| 18>
| 19> %scf
| 20>   MaxIter 150
| 21> end
| 22>
| 23>
| 24>                          ****END OF INPUT****

CARTESIAN COORDINATES (ANGSTROEM)
---------------------------------
  C     -0.106080    1.769910   -4.089840
  C     -0.258750    1.004320   -5.409830
  C      0.395960   -0.370700   -5.339940
  H      0.239150    1.569390   -6.201250
  H     -1.309360    0.888690   -5.682450
  O     -0.326330   -1.390400   -5.491280
  F      1.619410   -0.400730   -5.036830
  H     -0.576270    2.727180   -4.176300
  H      0.933210    1.901400   -3.871920
  H     -0.568680    1.215340   -3.300310

 Total Charge           Charge          ....    0
 Multiplicity           Mult            ....    1
 Number of Electrons    NEL             ....   40
 Basis Dimension        Dim             ....   95

ORBITAL ENERGIES
----------------

  NO   OCC          E(Eh)            E(eV)
   0   2.0000     -24.323371      -661.8726
   1   2.0000     -18.752541      -510.2826
   2   2.0000     -10.049781      -273.4684
   3   2.0000      -9.920725      -269.9567
   4   2.0000      -9.903679      -269.4928
   5   2.0000      -1.186252       -32.2795
   6   2.0000      -0.921221       -25.0677
   7   2.0000      -0.721592       -19.6355
   8   2.0000      -0.607791       -16.5388
   9   2.0000      -0.566548       -15.4165
  10   2.0000      -0.480709       -13.0807
  11   2.0000      -0.466754       -12.7010
  12   2.0000      -0.433536       -11.7971
  13   2.0000      -0.407435       -11.0869
  14   2.0000      -0.378493       -10.2993
  15   2.0000      -0.351426        -9.5628
  16   2.0000      -0.330365        -8.9897
  17   2.0000      -0.325359        -8.8535
  18   2.0000      -0.300425        -8.1750
  19   2.0000      -0.227946        -6.2027
  20   0.0000      -0.054509        -1.4833
  21   0.0000       0.035836         0.9752
  22   0.0000       0.080515         2.1909
  23   0.0000       0.086532         2.3547
  24   0.0000       0.107353         2.9212

MULLIKEN ATOMIC CHARGES
-----------------------
   0 C :   -0.032218
   1 C :   -0.066749
   2 C :    0.161765
   3 H :    0.044432
   4 H :    0.049449
   5 O :   -0.218753
   6 F :   -0.044554
   7 H :    0.034601
   8 H :    0.032900
   9 H :    0.039127
Sum of atomic charges:    0.0000000

LOEWDIN ATOMIC CHARGES
----------------------
   0 C :   -0.051191
   1 C :   -0.074513
   2 C :    0.062955
   3 H :    0.041726
   4 H :    0.044431
   5 O :   -0.171245
   6 F :    0.059604
   7 H :    0.032021
   8 H :    0.026237
   9 H :    0.029977

  Mayer bond orders larger than 0.100000
B(  0-C ,  1-C ) :   1.0882 B(  0-C ,  7-H ) :   0.9627 B(  0-C ,  8-H ) :   0.9685
B(  0-C ,  9-H ) :   0.9729 B(  1-C ,  2-C ) :   1.0130 B(  1-C ,  3-H ) :   0.9167
B(  1-C ,  4-H ) :   0.9401 B(  2-C ,  5-O ) :   2.0967 B(  2-C ,  6-F ) :   1.2128

Dispersion correction           -0.006191723
FINAL SINGLE POINT ENERGY      -291.851444922833

DIPOLE MOMENT
-------------
                                X             Y             Z
Electronic contribution:      4.10490      -6.67056      -1.81194
Nuclear contribution   :     -3.93139       7.77287       1.92635
                        -----------------------------------------
Total Dipole Moment    :      0.17351       1.10231       0.11441
                        -----------------------------------------
Magnitude (a.u.)       :      1.12173
Magnitude (Debye)      :      2.85122

Rotational constants in cm-1:     0.286068     0.133630     0.103472
Rotational constants in MHz :  8576.109806  4006.118234  3102.010802

                             ****ORCA TERMINATED NORMALLY****
TOTAL RUN TIME: 0 days 0 hours 0 minutes 6 seconds 939 msec
