                         Program Version 5.0.0 -  RELEASE  -
|  1> !DLPNO-CCSD(T) aug-cc-pVTZ aug-cc-pVTZ/C TightSCF TightPNO RIJCOSX def2/J
|  2> *xyz -1 1
|  3> C         -1.91658       -2.48508       -3.64367
|  4> C         -1.36353       -1.98134       -2.29361
|  5> O         -0.35039       -2.74969       -1.79601
|  6> H         -2.22622       -1.90839       -1.60204
|  7> H         -1.05135       -0.91567       -2.44333
|  8> H         -1.11522       -2.57167       -4.34739
|  9> H         -2.64227       -1.79099       -4.01314
| 10> H         -2.37564       -3.44180       -3.50640
| 11> *
| 12>
| 13> %MaxCore 64000
| 14> %pal nprocs 18
| 15> end
| 16>
| 17> %scf
| 18>   MaxIter 150
| 19> end
| 20>
| 21>
| 22>                          ****END OF INPUT****

CARTESIAN COORDINATES (ANGSTROEM)
---------------------------------
  C     -1.916580   -2.485080   -3.643670
  C     -1.363530   -1.981340   -2.293610
  O     -0.350390   -2.749690   -1.796010
  H     -2.226220   -1.908390   -1.602040
  H     -1.051350   -0.915670   -2.443330
  H     -1.115220   -2.571670   -4.347390
  H     -2.642270   -1.790990   -4.013140
  H     -2.375640   -3.441800   -3.506400

 Total Charge           Charge          ....   -1
 Multiplicity           Mult            ....    1
 Number of Electrons    NEL             ....   26
 Basis Dimension        Dim             ....  253

ORBITAL ENERGIES
----------------

  NO   OCC          E(Eh)            E(eV)
   0   2.0000     -20.204705      -549.7980
   1   2.0000     -11.038239      -300.3658
   2   2.0000     -11.012853      -299.6750
   3   2.0000      -0.994925       -27.0733
   4   2.0000      -0.784098       -21.3364
   5   2.0000      -0.587376       -15.9833
   6   2.0000      -0.412019       -11.2116
   7   2.0000      -0.387251       -10.5376
   8   2.0000      -0.319702        -8.6995
   9   2.0000      -0.304803        -8.2941
  10   2.0000      -0.261084        -7.1045
  11   2.0000      -0.111746        -3.0408
  12   2.0000      -0.109704        -2.9852
  13   0.0000       0.133116         3.6223
  14   0.0000       0.141787         3.8582
  15   0.0000       0.143486         3.9045
  16   0.0000       0.154440         4.2025
  17   0.0000       0.167331         4.5533

MULLIKEN ATOMIC CHARGES
-----------------------
   0 C :   -0.932979
   1 C :   -0.131025
   2 O :   -1.122633
   3 H :    0.198354
   4 H :    0.178112
   5 H :    0.276626
   6 H :    0.275289
   7 H :    0.258255
Sum of atomic charges:   -1.0000000

LOEWDIN ATOMIC CHARGES
----------------------
   0 C :    0.495303
   1 C :   -0.426088
   2 O :    0.094862
   3 H :   -0.241879
   4 H :   -0.231012
   5 H :   -0.226097
   6 H :   -0.239383
   7 H :   -0.225705

  Mayer bond orders larger than 0.100000
B(  0-C ,  1-C ) :   0.8564 B(  0-C ,  5-H ) :   0.9179 B(  0-C ,  6-H ) :   0.9201
B(  0-C ,  7-H ) :   0.9346 B(  1-C ,  2-O ) :   1.1057 B(  1-C ,  3-H ) :   0.9815
B(  1-C ,  4-H ) :   0.9911

E(0)                                       ...   -153.510048448
E(0)                                       ...   -153.510048448
E(CORR)(strong-pairs)                      ...     -0.651329559
E(CORR)(weak-pairs)                        ...     -0.000421093
E(CORR)(corrected)                         ...     -0.651750653
E(TOT)                                     ...   -154.161799101
E(CCSD(T))                                 ...   -154.188207951
FINAL SINGLE POINT ENERGY      -154.188207950927

DIPOLE MOMENT
-------------
                                X             Y             Z
Electronic contribution:      1.93015      -0.82297       1.73903
Nuclear contribution   :     -3.14382       1.30299      -2.83231
                        -----------------------------------------
Total Dipole Moment    :     -1.21367       0.48002      -1.09327
                        -----------------------------------------
Magnitude (a.u.)       :      1.70255
Magnitude (Debye)      :      4.32753

Rotational constants in cm-1:     1.288206     0.322942     0.285188
Rotational constants in MHz : 38619.437223  9681.562038  8549.712012

                             ****ORCA TERMINATED NORMALLY****
TOTAL RUN TIME: 0 days 0 hours 1 minutes 59 seconds 23 msec
