                         Program Version 5.0.0 -  RELEASE  -
|  1> !DLPNO-CCSD(T) aug-cc-pVTZ aug-cc-pVTZ/C TightSCF TightPNO RIJCOSX def2/J
|  2> *xyz 1 1
|  3> C          1.64703       -2.34528       -5.02041
|  4> C          2.20996       -2.81239       -3.66571
|  5> C          2.48901       -1.66851       -2.73754
|  6> N          3.59631       -0.94761       -2.95225
|  7> N          1.66394       -1.41369       -1.77781
|  8> H          0.81164       -1.96318       -1.70275
|  9> H          1.84550       -0.63508       -1.15875
| 10> H          4.20535       -1.17600       -3.73383
| 11> H          3.81723       -0.12585       -2.40604
| 12> H          3.14311       -3.36280       -3.81152
| 13> H          1.48768       -3.45893       -3.16521
| 14> H          1.46566       -3.19589       -5.64368
| 15> H          2.35406       -1.69850       -5.49654
| 16> H          0.73014       -1.81680       -4.86253
| 17> *
| 18>
| 19> %MaxCore 64000
| 20> %pal nprocs 18
| 21> end
| 22>
| 23> %scf
| 24>   MaxIter 150
| 25> end
| 26>
| 27>
| 28>                          ****END OF INPUT****

CARTESIAN COORDINATES (ANGSTROEM)
---------------------------------
  C      1.647030   -2.345280   -5.020410
  C      2.209960   -2.812390   -3.665710
  C      2.489010   -1.668510   -2.737540
  N      3.596310   -0.947610   -2.952250
  N      1.663940   -1.413690   -1.777810
  H      0.811640   -1.963180   -1.702750
  H      1.845500   -0.635080   -1.158750
  H      4.205350   -1.176000   -3.733830
  H      3.817230   -0.125850   -2.406040
  H      3.143110   -3.362800   -3.811520
  H      1.487680   -3.458930   -3.165210
  H      1.465660   -3.195890   -5.643680
  H      2.354060   -1.698500   -5.496540
  H      0.730140   -1.816800   -4.862530

 Total Charge           Charge          ....    1
 Multiplicity           Mult            ....    1
 Number of Electrons    NEL             ....   40
 Basis Dimension        Dim             ....  437

ORBITAL ENERGIES
----------------

  NO   OCC          E(Eh)            E(eV)
   0   2.0000     -15.812989      -430.2933
   1   2.0000     -15.801451      -429.9793
   2   2.0000     -11.568826      -314.8038
   3   2.0000     -11.425579      -310.9058
   4   2.0000     -11.380199      -309.6710
   5   2.0000      -1.524264       -41.4773
   6   2.0000      -1.404821       -38.2271
   7   2.0000      -1.238457       -33.7001
   8   2.0000      -1.093092       -29.7445
   9   2.0000      -1.026819       -27.9412
  10   2.0000      -0.960377       -26.1332
  11   2.0000      -0.939827       -25.5740
  12   2.0000      -0.873186       -23.7606
  13   2.0000      -0.811120       -22.0717
  14   2.0000      -0.788192       -21.4478
  15   2.0000      -0.770456       -20.9652
  16   2.0000      -0.693185       -18.8625
  17   2.0000      -0.682409       -18.5693
  18   2.0000      -0.680108       -18.5067
  19   2.0000      -0.627987       -17.0884
  20   0.0000      -0.097825        -2.6620
  21   0.0000      -0.075372        -2.0510
  22   0.0000      -0.073425        -1.9980
  23   0.0000      -0.064367        -1.7515
  24   0.0000      -0.050714        -1.3800

MULLIKEN ATOMIC CHARGES
-----------------------
   0 C :   -0.902714
   1 C :   -0.065448
   2 C :    0.721303
   3 N :   -0.419237
   4 N :   -0.369568
   5 H :    0.111939
   6 H :    0.168625
   7 H :    0.110476
   8 H :    0.165189
   9 H :    0.290169
  10 H :    0.269442
  11 H :    0.335421
  12 H :    0.294394
  13 H :    0.290009
Sum of atomic charges:    1.0000000

LOEWDIN ATOMIC CHARGES
----------------------
   0 C :    0.652508
   1 C :    0.342034
   2 C :   -0.223075
   3 N :    0.946949
   4 N :    0.947707
   5 H :   -0.219258
   6 H :   -0.220232
   7 H :   -0.232234
   8 H :   -0.233681
   9 H :   -0.123085
  10 H :   -0.139537
  11 H :   -0.157192
  12 H :   -0.174296
  13 H :   -0.166608

  Mayer bond orders larger than 0.100000
B(  0-C ,  1-C ) :   0.8261 B(  0-C ,  2-C ) :   0.1492 B(  0-C , 11-H ) :   0.9127
B(  0-C , 12-H ) :   0.9325 B(  0-C , 13-H ) :   0.9362 B(  1-C ,  2-C ) :   0.3890
B(  1-C ,  3-N ) :  -0.1083 B(  1-C ,  9-H ) :   0.9478 B(  1-C , 10-H ) :   0.9681
B(  2-C ,  3-N ) :   1.0094 B(  2-C ,  4-N ) :   0.9668 B(  3-N ,  4-N ) :  -0.1073
B(  3-N ,  7-H ) :   1.1315 B(  3-N ,  8-H ) :   1.0401 B(  4-N ,  5-H ) :   1.1243
B(  4-N ,  6-H ) :   1.0634

E(0)                                       ...   -227.644507050
E(0)                                       ...   -227.644507050
E(CORR)(strong-pairs)                      ...     -0.968772366
E(CORR)(weak-pairs)                        ...     -0.000927162
E(CORR)(corrected)                         ...     -0.969699528
E(TOT)                                     ...   -228.614206578
E(CCSD(T))                                 ...   -228.652539852
FINAL SINGLE POINT ENERGY      -228.652539851647

DIPOLE MOMENT
-------------
                                X             Y             Z
Electronic contribution:      1.16677       1.60057       3.58816
Nuclear contribution   :     -0.98617      -1.03178      -2.77619
                        -----------------------------------------
Total Dipole Moment    :      0.18061       0.56879       0.81197
                        -----------------------------------------
Magnitude (a.u.)       :      1.00769
Magnitude (Debye)      :      2.56135

Rotational constants in cm-1:     0.257311     0.127495     0.099037
Rotational constants in MHz :  7713.982239  3822.189706  2969.039713

                             ****ORCA TERMINATED NORMALLY****
TOTAL RUN TIME: 0 days 0 hours 6 minutes 52 seconds 226 msec
