                         Program Version 5.0.0 -  RELEASE  -
|  1> !DLPNO-CCSD(T) aug-cc-pVTZ aug-cc-pVTZ/C TightSCF TightPNO RIJCOSX def2/J
|  2>
|  3> *xyzfile 0 1 B.xyz
|  4>
|  5> %MaxCore 64000
|  6>
|  7> %pal nprocs 18
|  8> end
|  9>
| 10> %scf
| 11>   MaxIter 150
| 12> end
| 13>
| 14>
| 15>                          ****END OF INPUT****

CARTESIAN COORDINATES (ANGSTROEM)
---------------------------------
  C      1.647032   -2.345276   -5.020411
  C      0.217628   -1.814022   -4.924389
  C      2.209964   -2.812388   -3.665708
  C     -0.811356   -2.908780   -4.607625
  C     -1.916579   -2.485081   -3.643665
  H     -2.554525   -1.712428   -4.091993
  C     -1.363531   -1.981337   -2.293608
  H     -2.553448   -3.355667   -3.458815
  O     -0.350395   -2.749689   -1.796006
  H      2.308385   -1.588704   -5.457128
  H      1.674286   -3.203478   -5.697392
  C      2.489007   -1.668510   -2.737538
  N      3.596314   -0.947608   -2.952247
  N      1.663936   -1.413685   -1.777806
  H      0.811642   -1.963178   -1.702755
  H      1.845503   -0.635078   -1.158749
  H      4.205351   -1.176003   -3.733825
  H      3.817230   -0.125845   -2.406041
  H     -1.244829   -3.280884   -5.541040
  H     -0.306331   -3.757746   -4.142734
  H     -0.036244   -1.318555   -5.865303
  H      0.175004   -1.035382   -4.158095
  H      3.143106   -3.362803   -3.811524
  H      1.487683   -3.458935   -3.165211
  H     -2.226220   -1.908386   -1.602039
  H     -1.051353   -0.915671   -2.443331

 Total Charge           Charge          ....    0
 Multiplicity           Mult            ....    1
 Number of Electrons    NEL             ....   80
 Basis Dimension        Dim             ....  828

ORBITAL ENERGIES
----------------

  NO   OCC          E(Eh)            E(eV)
   0   2.0000     -20.393623      -554.9387
   1   2.0000     -15.639364      -425.5687
   2   2.0000     -15.591317      -424.2613
   3   2.0000     -11.385137      -309.8053
   4   2.0000     -11.252377      -306.1927
   5   2.0000     -11.239225      -305.8349
   6   2.0000     -11.207069      -304.9598
   7   2.0000     -11.196921      -304.6837
   8   2.0000     -11.185891      -304.3836
   9   2.0000     -11.167876      -303.8934
  10   2.0000      -1.341415       -36.5017
  11   2.0000      -1.231344       -33.5066
  12   2.0000      -1.194717       -32.5099
  13   2.0000      -1.094641       -29.7867
  14   2.0000      -1.021386       -27.7933
  15   2.0000      -0.955230       -25.9931
  16   2.0000      -0.875879       -23.8339
  17   2.0000      -0.855382       -23.2761
  18   2.0000      -0.798692       -21.7335
  19   2.0000      -0.781284       -21.2598
  20   2.0000      -0.758989       -20.6531
  21   2.0000      -0.717908       -19.5353
  22   2.0000      -0.688735       -18.7414
  23   2.0000      -0.650743       -17.7076
  24   2.0000      -0.632352       -17.2072
  25   2.0000      -0.600962       -16.3530
  26   2.0000      -0.589854       -16.0507
  27   2.0000      -0.560726       -15.2581
  28   2.0000      -0.544163       -14.8074
  29   2.0000      -0.541193       -14.7266
  30   2.0000      -0.502132       -13.6637
  31   2.0000      -0.496719       -13.5164
  32   2.0000      -0.485388       -13.2081
  33   2.0000      -0.463664       -12.6169
  34   2.0000      -0.443083       -12.0569
  35   2.0000      -0.438372       -11.9287
  36   2.0000      -0.426885       -11.6161
  37   2.0000      -0.422600       -11.4995
  38   2.0000      -0.310709        -8.4548
  39   2.0000      -0.307332        -8.3629
  40   0.0000       0.006122         0.1666
  41   0.0000       0.023466         0.6385
  42   0.0000       0.030760         0.8370
  43   0.0000       0.035870         0.9761
  44   0.0000       0.046716         1.2712

MULLIKEN ATOMIC CHARGES
-----------------------
   0 C :   -0.539915
   1 C :   -0.481760
   2 C :   -0.023571
   3 C :   -0.299245
   4 C :   -0.641524
   5 H :    0.199115
   6 C :   -0.157954
   7 H :    0.237873
   8 O :   -0.984773
   9 H :    0.193874
  10 H :    0.257770
  11 C :    0.720225
  12 N :   -0.682607
  13 N :   -0.413049
  14 H :    0.419600
  15 H :    0.043517
  16 H :    0.074610
  17 H :    0.108580
  18 H :    0.357390
  19 H :    0.151866
  20 H :    0.289321
  21 H :    0.184795
  22 H :    0.351649
  23 H :    0.181174
  24 H :    0.295280
  25 H :    0.157760
Sum of atomic charges:   -0.0000000

LOEWDIN ATOMIC CHARGES
----------------------
   0 C :    0.308836
   1 C :    0.299035
   2 C :    0.347748
   3 C :    0.278914
   4 C :    0.264252
   5 H :   -0.152916
   6 C :   -0.180024
   7 H :   -0.156613
   8 O :    0.499195
   9 H :   -0.147597
  10 H :   -0.133960
  11 C :   -0.223253
  12 N :    0.911260
  13 N :    0.935551
  14 H :   -0.790802
  15 H :   -0.218092
  16 H :   -0.255326
  17 H :   -0.254334
  18 H :   -0.143408
  19 H :   -0.183774
  20 H :   -0.137360
  21 H :   -0.183755
  22 H :   -0.130844
  23 H :   -0.184899
  24 H :   -0.180629
  25 H :   -0.187205

  Mayer bond orders larger than 0.100000
B(  0-C ,  1-C ) :   0.8652 B(  0-C ,  2-C ) :   0.8090 B(  0-C ,  9-H ) :   0.9797
B(  0-C , 10-H ) :   0.9959 B(  0-C , 11-C ) :   0.1715 B(  1-C ,  3-C ) :   0.7667
B(  1-C , 20-H ) :   0.9245 B(  1-C , 21-H ) :   1.0587 B(  2-C , 11-C ) :   0.3435
B(  2-C , 12-N ) :  -0.1053 B(  2-C , 22-H ) :   0.9339 B(  2-C , 23-H ) :   1.0509
B(  3-C ,  4-C ) :   0.8576 B(  3-C , 18-H ) :   0.8898 B(  3-C , 19-H ) :   1.1094
B(  4-C ,  5-H ) :   1.0141 B(  4-C ,  6-C ) :   0.8086 B(  4-C ,  7-H ) :   1.0048
B(  4-C ,  8-O ) :   0.1091 B(  4-C , 19-H ) :   0.1092 B(  6-C ,  8-O ) :   0.9763
B(  6-C , 24-H ) :   0.9387 B(  6-C , 25-H ) :   1.1263 B(  8-O , 14-H ) :   0.3141
B( 11-C , 12-N ) :   0.6405 B( 11-C , 13-N ) :   0.9741 B( 11-C , 15-H ) :  -0.1808
B( 11-C , 22-H ) :  -0.1662 B( 11-C , 23-H ) :   0.1701 B( 12-N , 16-H ) :   1.1710
B( 12-N , 17-H ) :   1.1316 B( 13-N , 14-H ) :   0.6041 B( 13-N , 15-H ) :   1.2188

E(0)                                       ...   -458.263067200
E(0)                                       ...   -458.263067200
E(CORR)(strong-pairs)                      ...     -1.976568591
E(CORR)(weak-pairs)                        ...     -0.002798470
E(CORR)(corrected)                         ...     -1.979367061
E(TOT)                                     ...   -460.242434261
E(CCSD(T))                                 ...   -460.325929466
FINAL SINGLE POINT ENERGY      -460.325929465759

DIPOLE MOMENT
-------------
                                X             Y             Z
Electronic contribution:      5.68840       0.91953       4.20293
Nuclear contribution   :     -2.25948       0.71378      -5.15247
                        -----------------------------------------
Total Dipole Moment    :      3.42892       1.63331      -0.94954
                        -----------------------------------------
Magnitude (a.u.)       :      3.91495
Magnitude (Debye)      :      9.95100

Rotational constants in cm-1:     0.063973     0.031829     0.024059
Rotational constants in MHz :  1917.874550   954.201145   721.285252

                             ****ORCA TERMINATED NORMALLY****
TOTAL RUN TIME: 0 days 2 hours 34 minutes 53 seconds 821 msec
