                         Program Version 5.0.0 -  RELEASE  -
|  1> !DLPNO-CCSD(T) aug-cc-pVTZ aug-cc-pVTZ/C TightSCF TightPNO RIJCOSX def2/J
|  2> *xyz 0 1
|  3> C         -1.91658       -2.48508       -3.64367
|  4> C         -1.36353       -1.98134       -2.29361
|  5> F         -0.35039       -2.74969       -1.79601
|  6> H         -2.22622       -1.90839       -1.60204
|  7> H         -1.05135       -0.91567       -2.44333
|  8> H         -1.11522       -2.57167       -4.34739
|  9> H         -2.64227       -1.79099       -4.01314
| 10> H         -2.37564       -3.44180       -3.50640
| 11> *
| 12>
| 13> %MaxCore 64000
| 14> %pal nprocs 18
| 15> end
| 16>
| 17> %scf
| 18>   MaxIter 150
| 19> end
| 20>
| 21>
| 22>                          ****END OF INPUT****

CARTESIAN COORDINATES (ANGSTROEM)
---------------------------------
  C     -1.916580   -2.485080   -3.643670
  C     -1.363530   -1.981340   -2.293610
  F     -0.350390   -2.749690   -1.796010
  H     -2.226220   -1.908390   -1.602040
  H     -1.051350   -0.915670   -2.443330
  H     -1.115220   -2.571670   -4.347390
  H     -2.642270   -1.790990   -4.013140
  H     -2.375640   -3.441800   -3.506400

 Total Charge           Charge          ....    0
 Multiplicity           Mult            ....    1
 Number of Electrons    NEL             ....   26
 Basis Dimension        Dim             ....  253

ORBITAL ENERGIES
----------------

  NO   OCC          E(Eh)            E(eV)
   0   2.0000     -26.285400      -715.2621
   1   2.0000     -11.312437      -307.8271
   2   2.0000     -11.220301      -305.3199
   3   2.0000      -1.598200       -43.4892
   4   2.0000      -1.030982       -28.0544
   5   2.0000      -0.864314       -23.5192
   6   2.0000      -0.704628       -19.1739
   7   2.0000      -0.702474       -19.1153
   8   2.0000      -0.664940       -18.0939
   9   2.0000      -0.585386       -15.9292
  10   2.0000      -0.561213       -15.2714
  11   2.0000      -0.493977       -13.4418
  12   2.0000      -0.488125       -13.2825
  13   0.0000       0.030285         0.8241
  14   0.0000       0.041355         1.1253
  15   0.0000       0.041995         1.1427
  16   0.0000       0.049178         1.3382
  17   0.0000       0.067094         1.8257

MULLIKEN ATOMIC CHARGES
-----------------------
   0 C :   -0.979860
   1 C :   -0.046695
   2 F :   -0.485143
   3 H :    0.286849
   4 H :    0.280711
   5 H :    0.310125
   6 H :    0.335582
   7 H :    0.298430
Sum of atomic charges:   -0.0000000

LOEWDIN ATOMIC CHARGES
----------------------
   0 C :    0.589522
   1 C :   -0.120844
   2 F :    0.455318
   3 H :   -0.174266
   4 H :   -0.162053
   5 H :   -0.196888
   6 H :   -0.193654
   7 H :   -0.197136

  Mayer bond orders larger than 0.100000
B(  0-C ,  1-C ) :   0.9125 B(  0-C ,  5-H ) :   0.9015 B(  0-C ,  6-H ) :   0.8951
B(  0-C ,  7-H ) :   0.9149 B(  1-C ,  2-F ) :   0.6159 B(  1-C ,  3-H ) :   0.9300
B(  1-C ,  4-H ) :   0.9285

E(0)                                       ...   -178.146909501
E(0)                                       ...   -178.146909501
E(CORR)(strong-pairs)                      ...     -0.645175690
E(CORR)(weak-pairs)                        ...     -0.000406004
E(CORR)(corrected)                         ...     -0.645581695
E(TOT)                                     ...   -178.792491196
E(CCSD(T))                                 ...   -178.813729743
FINAL SINGLE POINT ENERGY      -178.813729743455

DIPOLE MOMENT
-------------
                                X             Y             Z
Electronic contribution:      3.56440      -1.31851       3.40015
Nuclear contribution   :     -4.15401       1.70894      -3.75000
                        -----------------------------------------
Total Dipole Moment    :     -0.58962       0.39043      -0.34984
                        -----------------------------------------
Magnitude (a.u.)       :      0.78897
Magnitude (Debye)      :      2.00540

Rotational constants in cm-1:     1.266842     0.300492     0.266603
Rotational constants in MHz : 37978.968232  9008.526876  7992.551454

                             ****ORCA TERMINATED NORMALLY****
TOTAL RUN TIME: 0 days 0 hours 1 minutes 19 seconds 596 msec
