                         Program Version 5.0.0 -  RELEASE  -
|  1> !DLPNO-CCSD(T) aug-cc-pVTZ aug-cc-pVTZ/C TightSCF TightPNO RIJCOSX def2/J
|  2> *xyz 0 1
|  3> C          1.64703       -2.34528       -5.02041
|  4> C          2.20996       -2.81239       -3.66571
|  5> C          2.48901       -1.66851       -2.73754
|  6> C          3.59631       -0.94761       -2.95225
|  7> N          1.66394       -1.41369       -1.77781
|  8> H          0.81164       -1.96318       -1.70275
|  9> H          1.84550       -0.63508       -1.15875
| 10> H          4.20535       -1.17600       -3.73383
| 11> H          3.81723       -0.12585       -2.40604
| 12> H          3.14311       -3.36280       -3.81152
| 13> H          1.48768       -3.45893       -3.16521
| 14> H          1.46566       -3.19589       -5.64368
| 15> H          2.35406       -1.69850       -5.49654
| 16> H          0.73014       -1.81680       -4.86253
| 17> *
| 18>
| 19> %MaxCore 64000
| 20> %pal nprocs 18
| 21> end
| 22>
| 23> %scf
| 24>   MaxIter 150
| 25> end
| 26>
| 27>
| 28>                          ****END OF INPUT****

CARTESIAN COORDINATES (ANGSTROEM)
---------------------------------
  C      1.647030   -2.345280   -5.020410
  C      2.209960   -2.812390   -3.665710
  C      2.489010   -1.668510   -2.737540
  C      3.596310   -0.947610   -2.952250
  N      1.663940   -1.413690   -1.777810
  H      0.811640   -1.963180   -1.702750
  H      1.845500   -0.635080   -1.158750
  H      4.205350   -1.176000   -3.733830
  H      3.817230   -0.125850   -2.406040
  H      3.143110   -3.362800   -3.811520
  H      1.487680   -3.458930   -3.165210
  H      1.465660   -3.195890   -5.643680
  H      2.354060   -1.698500   -5.496540
  H      0.730140   -1.816800   -4.862530

 Total Charge           Charge          ....    0
 Multiplicity           Mult            ....    1
 Number of Electrons    NEL             ....   40
 Basis Dimension        Dim             ....  437

ORBITAL ENERGIES
----------------

  NO   OCC          E(Eh)            E(eV)
   0   2.0000     -15.565725      -423.5649
   1   2.0000     -11.255155      -306.2684
   2   2.0000     -11.225665      -305.4659
   3   2.0000     -11.208418      -304.9966
   4   2.0000     -11.147267      -303.3326
   5   2.0000      -1.251379       -34.0518
   6   2.0000      -1.052080       -28.6286
   7   2.0000      -0.967769       -26.3343
   8   2.0000      -0.870633       -23.6911
   9   2.0000      -0.769145       -20.9295
  10   2.0000      -0.712322       -19.3833
  11   2.0000      -0.656882       -17.8747
  12   2.0000      -0.606323       -16.4989
  13   2.0000      -0.574106       -15.6222
  14   2.0000      -0.551625       -15.0105
  15   2.0000      -0.535627       -14.5751
  16   2.0000      -0.499801       -13.6003
  17   2.0000      -0.480903       -13.0860
  18   2.0000      -0.479647       -13.0519
  19   2.0000      -0.282499        -7.6872
  20   0.0000       0.026355         0.7171
  21   0.0000       0.035755         0.9729
  22   0.0000       0.040477         1.1014
  23   0.0000       0.044030         1.1981
  24   0.0000       0.056068         1.5257

MULLIKEN ATOMIC CHARGES
-----------------------
   0 C :   -0.950115
   1 C :   -0.083532
   2 C :    0.818567
   3 C :   -1.401091
   4 N :   -0.593152
   5 H :    0.047435
   6 H :    0.040756
   7 H :    0.123329
   8 H :    0.586826
   9 H :    0.281389
  10 H :    0.252429
  11 H :    0.293118
  12 H :    0.298047
  13 H :    0.285995
Sum of atomic charges:    0.0000000

LOEWDIN ATOMIC CHARGES
----------------------
   0 C :    0.614249
   1 C :    0.278424
   2 C :   -0.322546
   3 C :    0.558736
   4 N :    0.837346
   5 H :   -0.267457
   6 H :   -0.258174
   7 H :   -0.294176
   8 H :   -0.295329
   9 H :   -0.141231
  10 H :   -0.160548
  11 H :   -0.184374
  12 H :   -0.185761
  13 H :   -0.179159

  Mayer bond orders larger than 0.100000
B(  0-C ,  1-C ) :   0.7908 B(  0-C ,  2-C ) :   0.1582 B(  0-C , 11-H ) :   0.9422
B(  0-C , 12-H ) :   0.9416 B(  0-C , 13-H ) :   0.9604 B(  1-C ,  2-C ) :   0.6032
B(  1-C ,  9-H ) :   0.9959 B(  1-C , 10-H ) :   0.9675 B(  2-C ,  3-C ) :   1.1242
B(  2-C ,  4-N ) :   0.7173 B(  3-C ,  4-N ) :  -0.2516 B(  3-C ,  7-H ) :   1.4890
B(  3-C ,  8-H ) :   0.5085 B(  4-N ,  5-H ) :   1.1862 B(  4-N ,  6-H ) :   1.1987

E(0)                                       ...   -211.203449439
E(0)                                       ...   -211.203449439
E(CORR)(strong-pairs)                      ...     -0.950002793
E(CORR)(weak-pairs)                        ...     -0.000920023
E(CORR)(corrected)                         ...     -0.950922816
E(TOT)                                     ...   -212.154372255
E(CCSD(T))                                 ...   -212.193083698
FINAL SINGLE POINT ENERGY      -212.193083698398

DIPOLE MOMENT
-------------
                                X             Y             Z
Electronic contribution:     -0.08844       0.60947       2.98142
Nuclear contribution   :     -0.69146      -0.83112      -2.71336
                        -----------------------------------------
Total Dipole Moment    :     -0.77990      -0.22165       0.26806
                        -----------------------------------------
Magnitude (a.u.)       :      0.85395
Magnitude (Debye)      :      2.17057

Rotational constants in cm-1:     0.270661     0.129240     0.102040
Rotational constants in MHz :  8114.202941  3874.518141  3059.074383

                             ****ORCA TERMINATED NORMALLY****
TOTAL RUN TIME: 0 days 0 hours 8 minutes 2 seconds 705 msec
