                         Program Version 5.0.0 -  RELEASE  -
|  1> !DLPNO-CCSD(T) aug-cc-pVTZ aug-cc-pVTZ/C TightSCF TightPNO RIJCOSX def2/J
|  2> *xyz 0 1
|  3> C          1.64703       -2.34528       -5.02041
|  4> C          2.20996       -2.81239       -3.66571
|  5> C          2.48901       -1.66851       -2.73754
|  6> N          3.59631       -0.94761       -2.95225
|  7> C          1.66394       -1.41369       -1.77781
|  8> H          0.81164       -1.96318       -1.70275
|  9> H          1.84550       -0.63508       -1.15875
| 10> H          4.20535       -1.17600       -3.73383
| 11> H          3.81723       -0.12585       -2.40604
| 12> H          3.14311       -3.36280       -3.81152
| 13> H          1.48768       -3.45893       -3.16521
| 14> H          1.46566       -3.19589       -5.64368
| 15> H          2.35406       -1.69850       -5.49654
| 16> H          0.73014       -1.81680       -4.86253
| 17> *
| 18>
| 19> %MaxCore 64000
| 20> %pal nprocs 18
| 21> end
| 22>
| 23> %scf
| 24>   MaxIter 150
| 25> end
| 26>
| 27>
| 28>                          ****END OF INPUT****

CARTESIAN COORDINATES (ANGSTROEM)
---------------------------------
  C      1.647030   -2.345280   -5.020410
  C      2.209960   -2.812390   -3.665710
  C      2.489010   -1.668510   -2.737540
  N      3.596310   -0.947610   -2.952250
  C      1.663940   -1.413690   -1.777810
  H      0.811640   -1.963180   -1.702750
  H      1.845500   -0.635080   -1.158750
  H      4.205350   -1.176000   -3.733830
  H      3.817230   -0.125850   -2.406040
  H      3.143110   -3.362800   -3.811520
  H      1.487680   -3.458930   -3.165210
  H      1.465660   -3.195890   -5.643680
  H      2.354060   -1.698500   -5.496540
  H      0.730140   -1.816800   -4.862530

 Total Charge           Charge          ....    0
 Multiplicity           Mult            ....    1
 Number of Electrons    NEL             ....   40
 Basis Dimension        Dim             ....  437

ORBITAL ENERGIES
----------------

  NO   OCC          E(Eh)            E(eV)
   0   2.0000     -15.557380      -423.3378
   1   2.0000     -11.249378      -306.1111
   2   2.0000     -11.223537      -305.4080
   3   2.0000     -11.208938      -305.0107
   4   2.0000     -11.151121      -303.4374
   5   2.0000      -1.227946       -33.4141
   6   2.0000      -1.052419       -28.6378
   7   2.0000      -0.985235       -26.8096
   8   2.0000      -0.865896       -23.5622
   9   2.0000      -0.762223       -20.7412
  10   2.0000      -0.697268       -18.9736
  11   2.0000      -0.656686       -17.8693
  12   2.0000      -0.597287       -16.2530
  13   2.0000      -0.586046       -15.9471
  14   2.0000      -0.559037       -15.2122
  15   2.0000      -0.533983       -14.5304
  16   2.0000      -0.498993       -13.5783
  17   2.0000      -0.478651       -13.0248
  18   2.0000      -0.471025       -12.8172
  19   2.0000      -0.298526        -8.1233
  20   0.0000       0.027601         0.7511
  21   0.0000       0.035907         0.9771
  22   0.0000       0.040057         1.0900
  23   0.0000       0.043828         1.1926
  24   0.0000       0.055960         1.5228

MULLIKEN ATOMIC CHARGES
-----------------------
   0 C :   -0.960307
   1 C :   -0.118720
   2 C :    0.903262
   3 N :   -0.654074
   4 C :   -1.440954
   5 H :    0.164007
   6 H :    0.616826
   7 H :    0.059294
   8 H :    0.046335
   9 H :    0.250428
  10 H :    0.260462
  11 H :    0.302508
  12 H :    0.272360
  13 H :    0.298575
Sum of atomic charges:   -0.0000000

LOEWDIN ATOMIC CHARGES
----------------------
   0 C :    0.613780
   1 C :    0.276146
   2 C :   -0.315186
   3 N :    0.842327
   4 C :    0.551046
   5 H :   -0.283295
   6 H :   -0.282028
   7 H :   -0.278904
   8 H :   -0.271400
   9 H :   -0.144539
  10 H :   -0.157613
  11 H :   -0.184378
  12 H :   -0.187422
  13 H :   -0.178532

  Mayer bond orders larger than 0.100000
B(  0-C ,  1-C ) :   0.8278 B(  0-C , 11-H ) :   0.9411 B(  0-C , 12-H ) :   0.9643
B(  0-C , 13-H ) :   0.9404 B(  1-C ,  2-C ) :   0.5525 B(  1-C ,  3-N ) :  -0.1044
B(  1-C ,  9-H ) :   0.9753 B(  1-C , 10-H ) :   1.0087 B(  2-C ,  3-N ) :   0.7896
B(  2-C ,  4-C ) :   0.9394 B(  2-C ,  5-H ) :  -0.1434 B(  3-N ,  4-C ) :  -0.2422
B(  3-N ,  7-H ) :   1.1750 B(  3-N ,  8-H ) :   1.1492 B(  4-C ,  5-H ) :   1.4751
B(  4-C ,  6-H ) :   0.4515

E(0)                                       ...   -211.209199124
E(0)                                       ...   -211.209199124
E(CORR)(strong-pairs)                      ...     -0.948990782
E(CORR)(weak-pairs)                        ...     -0.000914360
E(CORR)(corrected)                         ...     -0.949905142
E(TOT)                                     ...   -212.159104266
E(CCSD(T))                                 ...   -212.197473815
FINAL SINGLE POINT ENERGY      -212.197473814997

DIPOLE MOMENT
-------------
                                X             Y             Z
Electronic contribution:      1.62174       1.03884       1.96303
Nuclear contribution   :     -1.13902      -0.93906      -2.44135
                        -----------------------------------------
Total Dipole Moment    :      0.48272       0.09977      -0.47832
                        -----------------------------------------
Magnitude (a.u.)       :      0.68685
Magnitude (Debye)      :      1.74583

Rotational constants in cm-1:     0.267243     0.130607     0.102304
Rotational constants in MHz :  8011.748167  3915.504600  3066.999841

                             ****ORCA TERMINATED NORMALLY****
TOTAL RUN TIME: 0 days 0 hours 7 minutes 43 seconds 456 msec
