                         Program Version 5.0.0 -  RELEASE  -
|  1> !DLPNO-CCSD(T) aug-cc-pVTZ aug-cc-pVTZ/C TightSCF TightPNO RIJCOSX def2/J
|  2>
|  3> *xyzfile 0 1 D1.xyz
|  4>
|  5> %MaxCore 64000
|  6>
|  7> %pal nprocs 18
|  8> end
|  9>
| 10> %scf
| 11>   MaxIter 150
| 12> end
| 13>
| 14>
| 15>                          ****END OF INPUT****

CARTESIAN COORDINATES (ANGSTROEM)
---------------------------------
  C      1.647032   -2.345276   -5.020411
  C      0.217628   -1.814022   -4.924389
  C      2.209964   -2.812388   -3.665708
  C     -0.811356   -2.908780   -4.607625
  C     -1.916579   -2.485081   -3.643665
  H     -2.554525   -1.712428   -4.091993
  C     -1.363531   -1.981337   -2.293608
  H     -2.553448   -3.355667   -3.458815
  F     -0.350395   -2.749689   -1.796006
  H      2.308385   -1.588704   -5.457128
  H      1.674286   -3.203478   -5.697392
  C      2.489007   -1.668510   -2.737538
  C      3.596314   -0.947608   -2.952247
  N      1.663936   -1.413685   -1.777806
  H      0.811642   -1.963178   -1.702755
  H      1.845503   -0.635078   -1.158749
  H      4.205351   -1.176003   -3.733825
  H      3.817230   -0.125845   -2.406041
  H     -1.244829   -3.280884   -5.541040
  H     -0.306331   -3.757746   -4.142734
  H     -0.036244   -1.318555   -5.865303
  H      0.175004   -1.035382   -4.158095
  H      3.143106   -3.362803   -3.811524
  H      1.487683   -3.458935   -3.165211
  H     -2.226220   -1.908386   -1.602039
  H     -1.051353   -0.915671   -2.443331

 Total Charge           Charge          ....    0
 Multiplicity           Mult            ....    1
 Number of Electrons    NEL             ....   80
 Basis Dimension        Dim             ....  828

ORBITAL ENERGIES
----------------

  NO   OCC          E(Eh)            E(eV)
   0   2.0000     -26.330386      -716.4862
   1   2.0000     -15.526230      -422.4902
   2   2.0000     -11.331302      -308.3404
   3   2.0000     -11.243305      -305.9459
   4   2.0000     -11.238613      -305.8182
   5   2.0000     -11.225530      -305.4622
   6   2.0000     -11.217375      -305.2403
   7   2.0000     -11.214961      -305.1746
   8   2.0000     -11.211124      -305.0702
   9   2.0000     -11.130629      -302.8798
  10   2.0000      -1.657362       -45.0991
  11   2.0000      -1.228745       -33.4359
  12   2.0000      -1.102221       -29.9930
  13   2.0000      -1.052559       -28.6416
  14   2.0000      -0.998834       -27.1797
  15   2.0000      -0.945397       -25.7256
  16   2.0000      -0.908318       -24.7166
  17   2.0000      -0.836459       -22.7612
  18   2.0000      -0.803165       -21.8552
  19   2.0000      -0.792197       -21.5568
  20   2.0000      -0.747266       -20.3341
  21   2.0000      -0.728939       -19.8354
  22   2.0000      -0.705682       -19.2026
  23   2.0000      -0.664655       -18.0862
  24   2.0000      -0.643282       -17.5046
  25   2.0000      -0.632647       -17.2152
  26   2.0000      -0.615359       -16.7448
  27   2.0000      -0.582352       -15.8466
  28   2.0000      -0.578919       -15.7532
  29   2.0000      -0.544044       -14.8042
  30   2.0000      -0.525427       -14.2976
  31   2.0000      -0.519801       -14.1445
  32   2.0000      -0.512248       -13.9390
  33   2.0000      -0.503479       -13.7004
  34   2.0000      -0.483889       -13.1673
  35   2.0000      -0.474375       -12.9084
  36   2.0000      -0.457150       -12.4397
  37   2.0000      -0.448618       -12.2075
  38   2.0000      -0.446945       -12.1620
  39   2.0000      -0.263997        -7.1837
  40   0.0000       0.023538         0.6405
  41   0.0000       0.031019         0.8441
  42   0.0000       0.033587         0.9140
  43   0.0000       0.037512         1.0208
  44   0.0000       0.046559         1.2669

MULLIKEN ATOMIC CHARGES
-----------------------
   0 C :   -0.544839
   1 C :   -0.478787
   2 C :    0.020074
   3 C :   -0.300223
   4 C :   -0.680892
   5 H :    0.230816
   6 C :   -0.122256
   7 H :    0.249680
   8 F :   -0.519437
   9 H :    0.209588
  10 H :    0.261836
  11 C :    1.076822
  12 C :   -1.833227
  13 N :   -0.707585
  14 H :    0.594776
  15 H :   -0.131679
  16 H :    0.153803
  17 H :    0.399853
  18 H :    0.354666
  19 H :    0.139125
  20 H :    0.278960
  21 H :    0.186467
  22 H :    0.368405
  23 H :    0.114044
  24 H :    0.379952
  25 H :    0.300060
Sum of atomic charges:    0.0000000

LOEWDIN ATOMIC CHARGES
----------------------
   0 C :    0.308303
   1 C :    0.301681
   2 C :    0.303744
   3 C :    0.289999
   4 C :    0.299149
   5 H :   -0.132429
   6 C :    0.002610
   7 H :   -0.151866
   8 F :    0.730356
   9 H :   -0.141793
  10 H :   -0.141287
  11 C :   -0.301962
  12 C :    0.557819
  13 N :    0.855228
  14 H :   -0.706572
  15 H :   -0.242686
  16 H :   -0.297852
  17 H :   -0.298418
  18 H :   -0.133156
  19 H :   -0.178214
  20 H :   -0.135154
  21 H :   -0.179423
  22 H :   -0.131065
  23 H :   -0.187174
  24 H :   -0.143540
  25 H :   -0.146300

  Mayer bond orders larger than 0.100000
B(  0-C ,  1-C ) :   0.8475 B(  0-C ,  2-C ) :   0.8003 B(  0-C ,  9-H ) :   1.0108
B(  0-C , 10-H ) :   0.9659 B(  0-C , 11-C ) :   0.1974 B(  0-C , 12-C ) :   0.1387
B(  1-C ,  3-C ) :   0.7677 B(  1-C , 20-H ) :   0.9369 B(  1-C , 21-H ) :   1.0640
B(  2-C , 11-C ) :   0.3927 B(  2-C , 22-H ) :   1.0295 B(  2-C , 23-H ) :   1.0430
B(  3-C ,  4-C ) :   0.8693 B(  3-C ,  8-F ) :  -0.1099 B(  3-C , 18-H ) :   0.8986
B(  3-C , 19-H ) :   1.1121 B(  4-C ,  5-H ) :   0.9784 B(  4-C ,  6-C ) :   0.8982
B(  4-C ,  7-H ) :   0.9935 B(  4-C ,  8-F ) :   0.1740 B(  6-C ,  8-F ) :   0.6701
B(  6-C , 24-H ) :   0.8706 B(  6-C , 25-H ) :   0.9971 B(  8-F , 14-H ) :  -0.2300
B( 11-C , 12-C ) :   0.5919 B( 11-C , 13-N ) :   0.4951 B( 11-C , 15-H ) :  -0.2756
B( 11-C , 16-H ) :  -0.2031 B( 11-C , 22-H ) :  -0.1711 B( 11-C , 23-H ) :   0.2050
B( 12-C , 13-N ) :  -0.1047 B( 12-C , 16-H ) :   1.5007 B( 12-C , 17-H ) :   0.8146
B( 12-C , 22-H ) :  -0.1657 B( 13-N , 14-H ) :   0.7233 B( 13-N , 15-H ) :   1.4890

E(0)                                       ...   -466.247672010
E(0)                                       ...   -466.247672010
E(CORR)(strong-pairs)                      ...     -1.949930223
E(CORR)(weak-pairs)                        ...     -0.002701456
E(CORR)(corrected)                         ...     -1.952631678
E(TOT)                                     ...   -468.200303689
E(CCSD(T))                                 ...   -468.278936698
FINAL SINGLE POINT ENERGY      -468.278936697909

DIPOLE MOMENT
-------------
                                X             Y             Z
Electronic contribution:     -1.40004      -1.75951       6.87133
Nuclear contribution   :     -0.37390       1.73388      -6.94752
                        -----------------------------------------
Total Dipole Moment    :     -1.77395      -0.02562      -0.07619
                        -----------------------------------------
Magnitude (a.u.)       :      1.77577
Magnitude (Debye)      :      4.51364

Rotational constants in cm-1:     0.062220     0.032742     0.024374
Rotational constants in MHz :  1865.297979   981.573941   730.711364

                             ****ORCA TERMINATED NORMALLY****
TOTAL RUN TIME: 0 days 2 hours 49 minutes 37 seconds 190 msec
