                         Program Version 5.0.0 -  RELEASE  -
|  1> !BLYP D3BJ RIJCOSX def2-SVPD def2/J TightSCF
|  2> *xyz -1 1
|  3> C         -7.33044       -2.67899       -3.20681
|  4> S         -6.01966       -2.92697       -4.41913
|  5> O         -5.64583       -1.58838       -4.91931
|  6> O         -4.88196       -3.50370       -3.66724
|  7> O         -6.54927       -3.80515       -5.42507
|  8> C         -7.46900       -1.24615       -2.71383
|  9> H         -7.11825       -3.37982       -2.39805
| 10> H         -8.24184       -3.00474       -3.70651
| 11> H         -7.67580       -0.60214       -3.54292
| 12> H         -6.55749       -0.94096       -2.24382
| 13> H         -8.27114       -1.18777       -2.00810
| 14> *
| 15> %MaxCore 64000
| 16>
| 17> %pal nprocs 4
| 18> end
| 19>
| 20> %scf
| 21>   MaxIter 150
| 22> end
| 23>
| 24>
| 25>                          ****END OF INPUT****

CARTESIAN COORDINATES (ANGSTROEM)
---------------------------------
  C     -7.330440   -2.678990   -3.206810
  S     -6.019660   -2.926970   -4.419130
  O     -5.645830   -1.588380   -4.919310
  O     -4.881960   -3.503700   -3.667240
  O     -6.549270   -3.805150   -5.425070
  C     -7.469000   -1.246150   -2.713830
  H     -7.118250   -3.379820   -2.398050
  H     -8.241840   -3.004740   -3.706510
  H     -7.675800   -0.602140   -3.542920
  H     -6.557490   -0.940960   -2.243820
  H     -8.271140   -1.187770   -2.008100

 Total Charge           Charge          ....   -1
 Multiplicity           Mult            ....    1
 Number of Electrons    NEL             ....   58
 Basis Dimension        Dim             ....  176

ORBITAL ENERGIES
----------------

  NO   OCC          E(Eh)            E(eV)
   0   2.0000     -88.127065     -2398.0593
   1   2.0000     -18.573006      -505.3972
   2   2.0000     -18.562742      -505.1179
   3   2.0000     -18.559460      -505.0286
   4   2.0000      -9.785615      -266.2801
   5   2.0000      -9.781543      -266.1693
   6   2.0000      -7.663896      -208.5452
   7   2.0000      -5.699008      -155.0779
   8   2.0000      -5.698915      -155.0754
   9   2.0000      -5.698139      -155.0543
  10   2.0000      -0.830074       -22.5875
  11   2.0000      -0.695060       -18.9135
  12   2.0000      -0.672898       -18.3105
  13   2.0000      -0.552894       -15.0450
  14   2.0000      -0.437020       -11.8919
  15   2.0000      -0.320262        -8.7148
  16   2.0000      -0.269115        -7.3230
  17   2.0000      -0.257793        -7.0149
  18   2.0000      -0.224589        -6.1114
  19   2.0000      -0.205370        -5.5884
  20   2.0000      -0.202470        -5.5095
  21   2.0000      -0.182554        -4.9675
  22   2.0000      -0.174577        -4.7505
  23   2.0000      -0.097679        -2.6580
  24   2.0000      -0.095234        -2.5914
  25   2.0000      -0.067549        -1.8381
  26   2.0000      -0.059833        -1.6281
  27   2.0000      -0.049654        -1.3512
  28   2.0000      -0.014231        -0.3872
  29   0.0000       0.123886         3.3711
  30   0.0000       0.155000         4.2178
  31   0.0000       0.165419         4.5013
  32   0.0000       0.171015         4.6535
  33   0.0000       0.193620         5.2687

MULLIKEN ATOMIC CHARGES
-----------------------
   0 C :   -0.080168
   1 S :    1.135548
   2 O :   -0.780220
   3 O :   -0.770575
   4 O :   -0.714421
   5 C :    1.187828
   6 H :   -0.185995
   7 H :   -0.165918
   8 H :   -0.136243
   9 H :   -0.165602
  10 H :   -0.324233
Sum of atomic charges:   -1.0000000

LOEWDIN ATOMIC CHARGES
----------------------
   0 C :   -0.119385
   1 S :    0.827409
   2 O :   -0.567472
   3 O :   -0.582482
   4 O :   -0.558555
   5 C :    0.106775
   6 H :   -0.005944
   7 H :   -0.012378
   8 H :   -0.027311
   9 H :   -0.018588
  10 H :   -0.042070

  Mayer bond orders larger than 0.100000
B(  0-C ,  1-S ) :   0.8461 B(  0-C ,  2-O ) :   0.1010 B(  0-C ,  5-C ) :   1.2696
B(  0-C ,  6-H ) :   0.9107 B(  0-C ,  7-H ) :   0.9195 B(  0-C ,  8-H ) :   0.2589
B(  0-C ,  9-H ) :   0.2449 B(  0-C , 10-H ) :   0.2933 B(  1-S ,  2-O ) :   1.3138
B(  1-S ,  3-O ) :   1.3172 B(  1-S ,  4-O ) :   1.3845 B(  5-C ,  7-H ) :   0.1082
B(  5-C ,  8-H ) :   0.7076 B(  5-C ,  9-H ) :   0.7085 B(  5-C , 10-H ) :   0.6395

Dispersion correction           -0.020460062
FINAL SINGLE POINT ENERGY      -702.709576249119

DIPOLE MOMENT
-------------
                                X             Y             Z
Electronic contribution:      4.69401      -3.51026      -5.10847
Nuclear contribution   :     -6.18165       4.01759       6.33106
                        -----------------------------------------
Total Dipole Moment    :     -1.48764       0.50734       1.22259
                        -----------------------------------------
Magnitude (a.u.)       :      1.99128
Magnitude (Debye)      :      5.06144

Rotational constants in cm-1:     0.161711     0.082788     0.081165
Rotational constants in MHz :  4847.971521  2481.906910  2433.276832

                             ****ORCA TERMINATED NORMALLY****
TOTAL RUN TIME: 0 days 0 hours 0 minutes 9 seconds 994 msec
