                         Program Version 5.0.0 -  RELEASE  -
|  1> !BLYP D3BJ RIJCOSX def2-SVPD def2/J TightSCF
|  2> *xyz 1 1
|  3> C         -2.16038       -1.36949       -3.46710
|  4> N         -3.03011       -1.91086       -4.54107
|  5> C         -2.04772        0.14658       -3.51177
|  6> H         -3.47744       -2.79151       -4.25710
|  7> H         -2.53801       -2.01786       -5.43808
|  8> H         -3.89159       -1.37604       -4.71437
|  9> H         -1.18444       -1.84400       -3.56639
| 10> H         -2.59819       -1.70838       -2.52848
| 11> H         -1.61525        0.44478       -4.44395
| 12> H         -1.42718        0.48198       -2.70720
| 13> H         -3.02145        0.57958       -3.41560
| 14> *
| 15> %MaxCore 64000
| 16>
| 17> %pal nprocs 4
| 18> end
| 19>
| 20> %scf
| 21>   MaxIter 150
| 22> end
| 23>
| 24>
| 25>                          ****END OF INPUT****

CARTESIAN COORDINATES (ANGSTROEM)
---------------------------------
  C     -2.160380   -1.369490   -3.467100
  N     -3.030110   -1.910860   -4.541070
  C     -2.047720    0.146580   -3.511770
  H     -3.477440   -2.791510   -4.257100
  H     -2.538010   -2.017860   -5.438080
  H     -3.891590   -1.376040   -4.714370
  H     -1.184440   -1.844000   -3.566390
  H     -2.598190   -1.708380   -2.528480
  H     -1.615250    0.444780   -4.443950
  H     -1.427180    0.481980   -2.707200
  H     -3.021450    0.579580   -3.415600

 Total Charge           Charge          ....    1
 Multiplicity           Mult            ....    1
 Number of Electrons    NEL             ....   26
 Basis Dimension        Dim             ....  124

ORBITAL ENERGIES
----------------

  NO   OCC          E(Eh)            E(eV)
   0   2.0000     -14.358717      -390.7206
   1   2.0000     -10.176845      -276.9260
   2   2.0000     -10.099274      -274.8152
   3   2.0000      -1.123636       -30.5757
   4   2.0000      -0.887763       -24.1573
   5   2.0000      -0.778740       -21.1906
   6   2.0000      -0.755251       -20.5514
   7   2.0000      -0.715843       -19.4791
   8   2.0000      -0.649447       -17.6723
   9   2.0000      -0.593087       -16.1387
  10   2.0000      -0.536779       -14.6065
  11   2.0000      -0.523084       -14.2338
  12   2.0000      -0.505876       -13.7656
  13   0.0000      -0.221970        -6.0401
  14   0.0000      -0.166081        -4.5193
  15   0.0000      -0.163862        -4.4589
  16   0.0000      -0.146915        -3.9978
  17   0.0000      -0.115077        -3.1314

MULLIKEN ATOMIC CHARGES
-----------------------
   0 C :    0.515708
   1 N :   -0.701012
   2 C :    1.023605
   3 H :    0.316561
   4 H :    0.366857
   5 H :    0.332672
   6 H :   -0.231802
   7 H :   -0.198340
   8 H :   -0.105333
   9 H :   -0.155258
  10 H :   -0.163658
Sum of atomic charges:    1.0000000

LOEWDIN ATOMIC CHARGES
----------------------
   0 C :    0.059254
   1 N :    0.335903
   2 C :    0.189075
   3 H :    0.101727
   4 H :    0.109655
   5 H :    0.101035
   6 H :    0.050850
   7 H :    0.048261
   8 H :   -0.002457
   9 H :    0.011383
  10 H :   -0.004688

  Mayer bond orders larger than 0.100000
B(  0-C ,  1-N ) :   0.7494 B(  0-C ,  2-C ) :   1.3314 B(  0-C ,  6-H ) :   0.8169
B(  0-C ,  7-H ) :   0.8206 B(  0-C ,  8-H ) :   0.2037 B(  0-C ,  9-H ) :   0.2376
B(  0-C , 10-H ) :   0.2273 B(  1-N ,  3-H ) :   0.7818 B(  1-N ,  4-H ) :   0.7174
B(  1-N ,  5-H ) :   0.7756 B(  1-N ,  6-H ) :   0.1530 B(  1-N ,  7-H ) :   0.1017
B(  2-C ,  8-H ) :   0.7287 B(  2-C ,  9-H ) :   0.7343 B(  2-C , 10-H ) :   0.7558

Dispersion correction           -0.012374211
FINAL SINGLE POINT ENERGY      -135.368447888948

DIPOLE MOMENT
-------------
                                X             Y             Z
Electronic contribution:     -0.63570      -1.47594      -0.76375
Nuclear contribution   :     -0.15215       0.37393      -0.04773
                        -----------------------------------------
Total Dipole Moment    :     -0.78784      -1.10201      -0.81148
                        -----------------------------------------
Magnitude (a.u.)       :      1.57912
Magnitude (Debye)      :      4.01381

Rotational constants in cm-1:     1.020762     0.277172     0.247319
Rotational constants in MHz : 30601.664035  8309.399682  7414.438136

                             ****ORCA TERMINATED NORMALLY****
TOTAL RUN TIME: 0 days 0 hours 0 minutes 7 seconds 516 msec
