                         Program Version 5.0.0 -  RELEASE  -
|  1> !BLYP D3BJ RIJCOSX def2-SVPD def2/J TightSCF xyzfile
|  2>
|  3> *xyzfile 0 1 B.xyz
|  4>
|  5> %MaxCore 64000
|  6>
|  7> %pal nprocs 4
|  8> end
|  9>
| 10> %scf
| 11>   MaxIter 150
| 12> end
| 13>
| 14>
| 15>                          ****END OF INPUT****

CARTESIAN COORDINATES (ANGSTROEM)
---------------------------------
  C     -2.160376   -1.369486   -3.467104
  N     -3.030108   -1.910857   -4.541074
  C     -2.047717    0.146583   -3.511774
  C     -7.330440   -2.678991   -3.206811
  S     -6.019659   -2.926965   -4.419128
  H     -3.477443   -2.791513   -4.257096
  H     -2.538013   -2.017860   -5.438075
  H     -3.891589   -1.376039   -4.714365
  O     -5.645830   -1.588384   -4.919307
  O     -4.881961   -3.503697   -3.667235
  H     -1.184438   -1.843997   -3.566393
  H     -2.598195   -1.708376   -2.528477
  O     -6.549267   -3.805150   -5.425071
  C     -3.328755    0.875037   -3.103669
  H     -1.740034    0.452343   -4.517126
  H     -1.232611    0.434938   -2.842208
  C     -3.628487    0.771601   -1.609363
  H     -4.175106    0.490791   -3.682203
  H     -3.237812    1.928663   -3.381480
  C     -4.975718    1.361432   -1.190644
  H     -2.830700    1.276234   -1.054766
  H     -3.594312   -0.275838   -1.294603
  C     -6.184720    0.784347   -1.926464
  H     -4.956292    2.445725   -1.342200
  H     -5.097256    1.205252   -0.114136
  C     -6.286921   -0.735882   -1.893531
  H     -6.163994    1.100199   -2.974250
  H     -7.094530    1.223459   -1.504509
  C     -7.468999   -1.246153   -2.713833
  H     -6.360641   -1.090347   -0.859176
  H     -5.369848   -1.171853   -2.295982
  H     -7.601914   -0.601349   -3.585329
  H     -8.389791   -1.173436   -2.126922
  H     -7.118254   -3.379818   -2.398055
  H     -8.241838   -3.004745   -3.706513

 Total Charge           Charge          ....    0
 Multiplicity           Mult            ....    1
 Number of Electrons    NEL             ....  122
 Basis Dimension        Dim             ....  464

ORBITAL ENERGIES
----------------

  NO   OCC          E(Eh)            E(eV)
   0   2.0000     -88.296439     -2402.6682
   1   2.0000     -18.743150      -510.0270
   2   2.0000     -18.742702      -510.0149
   3   2.0000     -18.729055      -509.6435
   4   2.0000     -14.123670      -384.3246
   5   2.0000     -10.003641      -272.2129
   6   2.0000      -9.957656      -270.9616
   7   2.0000      -9.938016      -270.4272
   8   2.0000      -9.929910      -270.2066
   9   2.0000      -9.923033      -270.0195
  10   2.0000      -9.922114      -269.9945
  11   2.0000      -9.914747      -269.7940
  12   2.0000      -9.914491      -269.7870
  13   2.0000      -9.911368      -269.7020
  14   2.0000      -7.832621      -213.1365
  15   2.0000      -5.868644      -159.6939
  16   2.0000      -5.867650      -159.6669
  17   2.0000      -5.865908      -159.6195
  18   2.0000      -1.003933       -27.3184
  19   2.0000      -0.909881       -24.7591
  20   2.0000      -0.862256       -23.4632
  21   2.0000      -0.858316       -23.3560
  22   2.0000      -0.750400       -20.4194
  23   2.0000      -0.722909       -19.6713
  24   2.0000      -0.699637       -19.0381
  25   2.0000      -0.659776       -17.9534
  26   2.0000      -0.630322       -17.1519
  27   2.0000      -0.590210       -16.0604
  28   2.0000      -0.556335       -15.1386
  29   2.0000      -0.547962       -14.9108
  30   2.0000      -0.530374       -14.4322
  31   2.0000      -0.512481       -13.9453
  32   2.0000      -0.497563       -13.5394
  33   2.0000      -0.474570       -12.9137
  34   2.0000      -0.461193       -12.5497
  35   2.0000      -0.436261       -11.8713
  36   2.0000      -0.434409       -11.8209
  37   2.0000      -0.419559       -11.4168
  38   2.0000      -0.407032       -11.0759
  39   2.0000      -0.394459       -10.7338
  40   2.0000      -0.390404       -10.6234
  41   2.0000      -0.382510       -10.4086
  42   2.0000      -0.381022       -10.3681
  43   2.0000      -0.366590        -9.9754
  44   2.0000      -0.358923        -9.7668
  45   2.0000      -0.353245        -9.6123
  46   2.0000      -0.341907        -9.3038
  47   2.0000      -0.331509        -9.0208
  48   2.0000      -0.324925        -8.8417
  49   2.0000      -0.311777        -8.4839
  50   2.0000      -0.303766        -8.2659
  51   2.0000      -0.293857        -7.9963
  52   2.0000      -0.281752        -7.6668
  53   2.0000      -0.279391        -7.6026
  54   2.0000      -0.275665        -7.5012
  55   2.0000      -0.268320        -7.3014
  56   2.0000      -0.265601        -7.2274
  57   2.0000      -0.234023        -6.3681
  58   2.0000      -0.230693        -6.2775
  59   2.0000      -0.220134        -5.9901
  60   2.0000      -0.193439        -5.2637
  61   0.0000      -0.036700        -0.9987
  62   0.0000      -0.005443        -0.1481
  63   0.0000       0.001132         0.0308
  64   0.0000       0.007165         0.1950
  65   0.0000       0.017578         0.4783

MULLIKEN ATOMIC CHARGES
-----------------------
   0 C :    1.298265
   1 N :   -0.862653
   2 C :    0.758123
   3 C :    0.770325
   4 S :    1.105211
   5 H :    0.212104
   6 H :    0.476146
   7 H :    0.273252
   8 O :   -0.814238
   9 O :   -0.798081
  10 H :   -0.508376
  11 H :   -0.196471
  12 O :   -0.718482
  13 C :    0.885915
  14 H :   -0.242963
  15 H :   -0.187271
  16 C :    0.124304
  17 H :   -0.805229
  18 H :   -0.221971
  19 C :    1.012088
  20 H :   -0.553432
  21 H :   -0.016299
  22 C :    0.187338
  23 H :   -0.193076
  24 H :   -0.142793
  25 C :    0.647574
  26 H :    0.076605
  27 H :   -0.606022
  28 C :    0.618761
  29 H :   -0.179800
  30 H :   -0.554650
  31 H :   -0.014025
  32 H :   -0.415276
  33 H :   -0.190178
  34 H :   -0.224723
Sum of atomic charges:    0.0000000

LOEWDIN ATOMIC CHARGES
----------------------
   0 C :    0.102372
   1 N :    0.340383
   2 C :   -0.001401
   3 C :   -0.042940
   4 S :    0.926015
   5 H :   -0.051121
   6 H :    0.098439
   7 H :   -0.040653
   8 O :   -0.511295
   9 O :   -0.514402
  10 H :    0.031228
  11 H :    0.028633
  12 O :   -0.486491
  13 C :   -0.006091
  14 H :    0.021936
  15 H :    0.026026
  16 C :   -0.025356
  17 H :   -0.003571
  18 H :    0.029154
  19 C :   -0.018240
  20 H :    0.019810
  21 H :    0.001408
  22 C :   -0.026249
  23 H :    0.017874
  24 H :    0.019108
  25 C :   -0.018765
  26 H :    0.015341
  27 H :    0.022055
  28 C :   -0.035056
  29 H :    0.031485
  30 H :   -0.013285
  31 H :    0.016449
  32 H :    0.023649
  33 H :    0.014394
  34 H :    0.009155

  Mayer bond orders larger than 0.100000
B(  0-C ,  1-N ) :   0.5984 B(  0-C ,  2-C ) :   1.1825 B(  0-C , 10-H ) :   0.5725
B(  0-C , 11-H ) :   0.6304 B(  0-C , 13-C ) :   0.1875 B(  0-C , 15-H ) :   0.2193
B(  0-C , 17-H ) :  -0.1099 B(  1-N ,  5-H ) :   0.7962 B(  1-N ,  6-H ) :   0.4837
B(  1-N ,  7-H ) :   0.7669 B(  1-N , 10-H ) :   0.1119 B(  1-N , 11-H ) :   0.2637
B(  2-C , 10-H ) :   0.1522 B(  2-C , 13-C ) :   1.1296 B(  2-C , 14-H ) :   0.5498
B(  2-C , 15-H ) :   0.6330 B(  2-C , 17-H ) :   0.1818 B(  2-C , 18-H ) :   0.1192
B(  2-C , 19-C ) :   0.1096 B(  3-C ,  4-S ) :   0.8376 B(  3-C , 12-O ) :   0.1347
B(  3-C , 25-C ) :   0.1687 B(  3-C , 28-C ) :   1.1868 B(  3-C , 31-H ) :   0.1117
B(  3-C , 33-H ) :   0.7675 B(  3-C , 34-H ) :   0.6057 B(  4-S ,  8-O ) :   1.1686
B(  4-S ,  9-O ) :   1.1718 B(  4-S , 12-O ) :   1.4627 B(  4-S , 33-H ) :   0.1280
B(  5-H ,  9-O ) :   0.2176 B(  7-H ,  8-O ) :   0.1909 B(  7-H , 17-H ) :   0.1216
B( 10-H , 11-H ) :  -0.1995 B( 10-H , 18-H ) :   0.1073 B( 11-H , 21-H ) :   0.1177
B( 13-C , 14-H ) :   0.2350 B( 13-C , 15-H ) :   0.1198 B( 13-C , 16-C ) :   1.1133
B( 13-C , 17-H ) :   0.3198 B( 13-C , 18-H ) :   0.6153 B( 13-C , 20-H ) :   0.2316
B( 13-C , 21-H ) :   0.1327 B( 14-H , 15-H ) :  -0.1543 B( 16-C , 17-H ) :   0.3166
B( 16-C , 18-H ) :   0.2173 B( 16-C , 19-C ) :   1.1231 B( 16-C , 20-H ) :   0.8049
B( 16-C , 21-H ) :   0.7865 B( 16-C , 22-C ) :   0.2397 B( 16-C , 23-H ) :   0.1856
B( 16-C , 24-H ) :   0.3682 B( 17-H , 26-H ) :   0.1439 B( 19-C , 22-C ) :   1.0908
B( 19-C , 23-H ) :   0.4992 B( 19-C , 24-H ) :   0.5032 B( 22-C , 23-H ) :   0.3213
B( 22-C , 24-H ) :   0.1456 B( 22-C , 25-C ) :   1.2173 B( 22-C , 26-H ) :   0.7461
B( 22-C , 27-H ) :   0.7884 B( 22-C , 28-C ) :   0.1756 B( 22-C , 29-H ) :   0.1346
B( 22-C , 30-H ) :   0.1907 B( 23-H , 24-H ) :  -0.1738 B( 25-C , 26-H ) :   0.1460
B( 25-C , 27-H ) :   0.2096 B( 25-C , 28-C ) :   1.1502 B( 25-C , 29-H ) :   0.5385
B( 25-C , 30-H ) :   0.5907 B( 25-C , 32-H ) :   0.2307 B( 26-H , 27-H ) :  -0.1154
B( 27-H , 31-H ) :  -0.1086 B( 28-C , 29-H ) :   0.1676 B( 28-C , 31-H ) :   0.7479
B( 28-C , 32-H ) :   0.5959 B( 28-C , 34-H ) :   0.2898 B( 29-H , 30-H ) :   0.2489
B( 31-H , 32-H ) :  -0.1029

Dispersion correction           -0.083587264
FINAL SINGLE POINT ENERGY     -1033.422035583310

DIPOLE MOMENT
-------------
                                X             Y             Z
Electronic contribution:     -6.03219     -15.22831     -11.42139
Nuclear contribution   :      8.59301      16.99497      12.41069
                        -----------------------------------------
Total Dipole Moment    :      2.56082       1.76666       0.98930
                        -----------------------------------------
Magnitude (a.u.)       :      3.26460
Magnitude (Debye)      :      8.29795

Rotational constants in cm-1:     0.025617     0.015295     0.010641
Rotational constants in MHz :   767.991150   458.522408   319.013093

                             ****ORCA TERMINATED NORMALLY****
TOTAL RUN TIME: 0 days 0 hours 0 minutes 49 seconds 431 msec
