                         Program Version 5.0.0 -  RELEASE  -
|  1> !BLYP D3BJ RIJCOSX def2-SVPD def2/J TightSCF
|  2> *xyz 0 1
|  3> C         -7.33044       -2.67899       -3.20681
|  4> S         -6.01966       -2.92697       -4.41913
|  5> F         -5.64583       -1.58838       -4.91931
|  6> O         -4.88196       -3.50370       -3.66724
|  7> O         -6.54927       -3.80515       -5.42507
|  8> C         -7.46900       -1.24615       -2.71383
|  9> H         -7.11825       -3.37982       -2.39805
| 10> H         -8.24184       -3.00474       -3.70651
| 11> H         -7.67580       -0.60214       -3.54292
| 12> H         -6.55749       -0.94096       -2.24382
| 13> H         -8.27114       -1.18777       -2.00810
| 14> *
| 15> %MaxCore 64000
| 16>
| 17> %pal nprocs 4
| 18> end
| 19>
| 20> %scf
| 21>   MaxIter 150
| 22> end
| 23>
| 24>
| 25>                          ****END OF INPUT****

CARTESIAN COORDINATES (ANGSTROEM)
---------------------------------
  C     -7.330440   -2.678990   -3.206810
  S     -6.019660   -2.926970   -4.419130
  F     -5.645830   -1.588380   -4.919310
  O     -4.881960   -3.503700   -3.667240
  O     -6.549270   -3.805150   -5.425070
  C     -7.469000   -1.246150   -2.713830
  H     -7.118250   -3.379820   -2.398050
  H     -8.241840   -3.004740   -3.706510
  H     -7.675800   -0.602140   -3.542920
  H     -6.557490   -0.940960   -2.243820
  H     -8.271140   -1.187770   -2.008100

 Total Charge           Charge          ....    0
 Multiplicity           Mult            ....    1
 Number of Electrons    NEL             ....   58
 Basis Dimension        Dim             ....  176

ORBITAL ENERGIES
----------------

  NO   OCC          E(Eh)            E(eV)
   0   2.0000     -88.380129     -2404.9456
   1   2.0000     -24.402703      -664.0313
   2   2.0000     -18.805117      -511.7132
   3   2.0000     -18.790999      -511.3291
   4   2.0000      -9.986212      -271.7387
   5   2.0000      -9.952552      -270.8227
   6   2.0000      -7.917996      -215.4596
   7   2.0000      -5.957294      -162.1062
   8   2.0000      -5.950979      -161.9344
   9   2.0000      -5.949290      -161.8884
  10   2.0000      -1.237147       -33.6645
  11   2.0000      -1.014557       -27.6075
  12   2.0000      -0.915326       -24.9073
  13   2.0000      -0.748142       -20.3580
  14   2.0000      -0.652227       -17.7480
  15   2.0000      -0.608995       -16.5716
  16   2.0000      -0.524280       -14.2664
  17   2.0000      -0.500505       -13.6194
  18   2.0000      -0.481590       -13.1047
  19   2.0000      -0.447885       -12.1876
  20   2.0000      -0.420465       -11.4414
  21   2.0000      -0.401495       -10.9252
  22   2.0000      -0.392389       -10.6774
  23   2.0000      -0.370616       -10.0850
  24   2.0000      -0.354465        -9.6455
  25   2.0000      -0.335979        -9.1424
  26   2.0000      -0.290074        -7.8933
  27   2.0000      -0.275642        -7.5006
  28   2.0000      -0.261507        -7.1160
  29   0.0000      -0.036959        -1.0057
  30   0.0000       0.005666         0.1542
  31   0.0000       0.015233         0.4145
  32   0.0000       0.020074         0.5462
  33   0.0000       0.025649         0.6979

MULLIKEN ATOMIC CHARGES
-----------------------
   0 C :   -0.060309
   1 S :    1.288373
   2 F :   -0.393542
   3 O :   -0.628349
   4 O :   -0.574365
   5 C :    1.191145
   6 H :   -0.141541
   7 H :   -0.119357
   8 H :   -0.134163
   9 H :   -0.152499
  10 H :   -0.275393
Sum of atomic charges:   -0.0000000

LOEWDIN ATOMIC CHARGES
----------------------
   0 C :   -0.072431
   1 S :    1.088073
   2 F :   -0.259949
   3 O :   -0.464049
   4 O :   -0.441768
   5 C :    0.138976
   6 H :    0.026118
   7 H :    0.014784
   8 H :   -0.013930
   9 H :   -0.006118
  10 H :   -0.009705

  Mayer bond orders larger than 0.100000
B(  0-C ,  1-S ) :   0.9198 B(  0-C ,  5-C ) :   1.2958 B(  0-C ,  6-H ) :   0.9081
B(  0-C ,  7-H ) :   0.9216 B(  0-C ,  8-H ) :   0.2403 B(  0-C ,  9-H ) :   0.2257
B(  0-C , 10-H ) :   0.2845 B(  1-S ,  2-F ) :   0.6990 B(  1-S ,  3-O ) :   1.5221
B(  1-S ,  4-O ) :   1.5871 B(  3-O ,  4-O ) :   0.1107 B(  5-C ,  8-H ) :   0.7127
B(  5-C ,  9-H ) :   0.7175 B(  5-C , 10-H ) :   0.6462

Dispersion correction           -0.019416574
FINAL SINGLE POINT ENERGY      -727.214821760111

DIPOLE MOMENT
-------------
                                X             Y             Z
Electronic contribution:      5.64902      -1.75018      -6.37254
Nuclear contribution   :     -6.81251       2.87933       7.15058
                        -----------------------------------------
Total Dipole Moment    :     -1.16350       1.12915       0.77804
                        -----------------------------------------
Magnitude (a.u.)       :      1.79834
Magnitude (Debye)      :      4.57103

Rotational constants in cm-1:     0.152543     0.082494     0.078987
Rotational constants in MHz :  4573.135887  2473.116216  2367.980829

                             ****ORCA TERMINATED NORMALLY****
TOTAL RUN TIME: 0 days 0 hours 0 minutes 10 seconds 450 msec
