                         Program Version 5.0.0 -  RELEASE  -
|  1> !BLYP D3BJ RIJCOSX def2-SVPD def2/J TightSCF
|  2> *xyz 0 1
|  3> C         -2.16038       -1.36949       -3.46710
|  4> C         -3.03011       -1.91086       -4.54107
|  5> C         -2.04772        0.14658       -3.51177
|  6> H         -3.47744       -2.79151       -4.25710
|  7> H         -2.53801       -2.01786       -5.43808
|  8> H         -3.89159       -1.37604       -4.71437
|  9> H         -1.18444       -1.84400       -3.56639
| 10> H         -2.59819       -1.70838       -2.52848
| 11> H         -1.61525        0.44478       -4.44395
| 12> H         -1.42718        0.48198       -2.70720
| 13> H         -3.02145        0.57958       -3.41560
| 14> *
| 15> %MaxCore 64000
| 16>
| 17> %pal nprocs 4
| 18> end
| 19>
| 20> %scf
| 21>   MaxIter 150
| 22> end
| 23>
| 24>
| 25>                          ****END OF INPUT****

CARTESIAN COORDINATES (ANGSTROEM)
---------------------------------
  C     -2.160380   -1.369490   -3.467100
  C     -3.030110   -1.910860   -4.541070
  C     -2.047720    0.146580   -3.511770
  H     -3.477440   -2.791510   -4.257100
  H     -2.538010   -2.017860   -5.438080
  H     -3.891590   -1.376040   -4.714370
  H     -1.184440   -1.844000   -3.566390
  H     -2.598190   -1.708380   -2.528480
  H     -1.615250    0.444780   -4.443950
  H     -1.427180    0.481980   -2.707200
  H     -3.021450    0.579580   -3.415600

 Total Charge           Charge          ....    0
 Multiplicity           Mult            ....    1
 Number of Electrons    NEL             ....   26
 Basis Dimension        Dim             ....  124

ORBITAL ENERGIES
----------------

  NO   OCC          E(Eh)            E(eV)
   0   2.0000      -9.910155      -269.6690
   1   2.0000      -9.902247      -269.4539
   2   2.0000      -9.885969      -269.0109
   3   2.0000      -0.705108       -19.1870
   4   2.0000      -0.613361       -16.6904
   5   2.0000      -0.519092       -14.1252
   6   2.0000      -0.416045       -11.3212
   7   2.0000      -0.387774       -10.5519
   8   2.0000      -0.353113        -9.6087
   9   2.0000      -0.345515        -9.4020
  10   2.0000      -0.296075        -8.0566
  11   2.0000      -0.284588        -7.7440
  12   2.0000      -0.283682        -7.7194
  13   0.0000       0.008010         0.2180
  14   0.0000       0.037604         1.0232
  15   0.0000       0.043896         1.1945
  16   0.0000       0.061223         1.6660
  17   0.0000       0.083808         2.2805

MULLIKEN ATOMIC CHARGES
-----------------------
   0 C :   -0.255904
   1 C :    1.296331
   2 C :    1.028557
   3 H :   -0.343792
   4 H :   -0.323533
   5 H :   -0.382422
   6 H :   -0.258105
   7 H :   -0.201019
   8 H :   -0.180888
   9 H :   -0.229773
  10 H :   -0.149451
Sum of atomic charges:   -0.0000000

LOEWDIN ATOMIC CHARGES
----------------------
   0 C :   -0.103126
   1 C :    0.123621
   2 C :    0.131776
   3 H :   -0.041493
   4 H :   -0.031709
   5 H :   -0.040110
   6 H :    0.016993
   7 H :    0.015235
   8 H :   -0.020975
   9 H :   -0.027844
  10 H :   -0.022367

  Mayer bond orders larger than 0.100000
B(  0-C ,  1-C ) :   1.3130 B(  0-C ,  2-C ) :   1.2830 B(  0-C ,  3-H ) :   0.2729
B(  0-C ,  4-H ) :   0.2864 B(  0-C ,  5-H ) :   0.2309 B(  0-C ,  6-H ) :   0.8370
B(  0-C ,  7-H ) :   0.8164 B(  0-C ,  8-H ) :   0.2343 B(  0-C ,  9-H ) :   0.2543
B(  0-C , 10-H ) :   0.2056 B(  1-C ,  3-H ) :   0.4818 B(  1-C ,  4-H ) :   0.5574
B(  1-C ,  5-H ) :   0.4931 B(  1-C ,  6-H ) :   0.1476 B(  1-C ,  7-H ) :   0.1529
B(  2-C ,  8-H ) :   0.7303 B(  2-C ,  9-H ) :   0.7069 B(  2-C , 10-H ) :   0.7525
B(  3-H ,  5-H ) :   0.2539 B(  4-H ,  5-H ) :   0.1386

Dispersion correction           -0.012458250
FINAL SINGLE POINT ENERGY      -118.959874787408

DIPOLE MOMENT
-------------
                                X             Y             Z
Electronic contribution:      0.31929      -0.13220       0.27609
Nuclear contribution   :     -0.34625       0.09603      -0.26933
                        -----------------------------------------
Total Dipole Moment    :     -0.02696      -0.03616       0.00676
                        -----------------------------------------
Magnitude (a.u.)       :      0.04561
Magnitude (Debye)      :      0.11593

Rotational constants in cm-1:     1.028617     0.291238     0.258956
Rotational constants in MHz : 30837.159054  8731.095379  7763.318586

                             ****ORCA TERMINATED NORMALLY****
TOTAL RUN TIME: 0 days 0 hours 0 minutes 7 seconds 473 msec
