                         Program Version 5.0.0 -  RELEASE  -
|  1> !BLYP D3BJ RIJCOSX def2-SVPD def2/J TightSCF
|  2> *xyz 0 1
|  3> C         -7.33044       -2.67899       -3.20681
|  4> S         -6.01966       -2.92697       -4.41913
|  5> O         -5.64583       -1.58838       -4.91931
|  6> F         -4.88196       -3.50370       -3.66724
|  7> O         -6.54927       -3.80515       -5.42507
|  8> C         -7.46900       -1.24615       -2.71383
|  9> H         -7.11825       -3.37982       -2.39805
| 10> H         -8.24184       -3.00474       -3.70651
| 11> H         -7.67580       -0.60214       -3.54292
| 12> H         -6.55749       -0.94096       -2.24382
| 13> H         -8.27114       -1.18777       -2.00810
| 14> *
| 15> %MaxCore 64000
| 16>
| 17> %pal nprocs 4
| 18> end
| 19>
| 20> %scf
| 21>   MaxIter 150
| 22> end
| 23>
| 24>
| 25>                          ****END OF INPUT****

CARTESIAN COORDINATES (ANGSTROEM)
---------------------------------
  C     -7.330440   -2.678990   -3.206810
  S     -6.019660   -2.926970   -4.419130
  O     -5.645830   -1.588380   -4.919310
  F     -4.881960   -3.503700   -3.667240
  O     -6.549270   -3.805150   -5.425070
  C     -7.469000   -1.246150   -2.713830
  H     -7.118250   -3.379820   -2.398050
  H     -8.241840   -3.004740   -3.706510
  H     -7.675800   -0.602140   -3.542920
  H     -6.557490   -0.940960   -2.243820
  H     -8.271140   -1.187770   -2.008100

 Total Charge           Charge          ....    0
 Multiplicity           Mult            ....    1
 Number of Electrons    NEL             ....   58
 Basis Dimension        Dim             ....  176

ORBITAL ENERGIES
----------------

  NO   OCC          E(Eh)            E(eV)
   0   2.0000     -88.380044     -2404.9433
   1   2.0000     -24.399803      -663.9524
   2   2.0000     -18.805038      -511.7111
   3   2.0000     -18.794079      -511.4129
   4   2.0000      -9.986439      -271.7448
   5   2.0000      -9.944119      -270.5932
   6   2.0000      -7.917930      -215.4578
   7   2.0000      -5.957135      -162.1019
   8   2.0000      -5.950922      -161.9328
   9   2.0000      -5.949303      -161.8888
  10   2.0000      -1.233420       -33.5631
  11   2.0000      -1.015377       -27.6298
  12   2.0000      -0.918611       -24.9967
  13   2.0000      -0.744112       -20.2483
  14   2.0000      -0.652952       -17.7677
  15   2.0000      -0.602551       -16.3962
  16   2.0000      -0.515570       -14.0294
  17   2.0000      -0.496540       -13.5115
  18   2.0000      -0.488979       -13.3058
  19   2.0000      -0.442940       -12.0530
  20   2.0000      -0.427266       -11.6265
  21   2.0000      -0.402027       -10.9397
  22   2.0000      -0.381970       -10.3939
  23   2.0000      -0.360081        -9.7983
  24   2.0000      -0.351977        -9.5778
  25   2.0000      -0.335457        -9.1283
  26   2.0000      -0.289689        -7.8828
  27   2.0000      -0.281288        -7.6542
  28   2.0000      -0.264233        -7.1902
  29   0.0000      -0.028668        -0.7801
  30   0.0000      -0.008681        -0.2362
  31   0.0000       0.010592         0.2882
  32   0.0000       0.023286         0.6336
  33   0.0000       0.027733         0.7547

MULLIKEN ATOMIC CHARGES
-----------------------
   0 C :   -0.094994
   1 S :    1.311870
   2 O :   -0.644994
   3 F :   -0.381536
   4 O :   -0.580499
   5 C :    1.220841
   6 H :   -0.145381
   7 H :   -0.124061
   8 H :   -0.112961
   9 H :   -0.161625
  10 H :   -0.286659
Sum of atomic charges:    0.0000000

LOEWDIN ATOMIC CHARGES
----------------------
   0 C :   -0.078340
   1 S :    1.090974
   2 O :   -0.454716
   3 F :   -0.264997
   4 O :   -0.442483
   5 C :    0.143385
   6 H :    0.013105
   7 H :    0.019071
   8 H :   -0.008495
   9 H :   -0.006999
  10 H :   -0.010505

  Mayer bond orders larger than 0.100000
B(  0-C ,  1-S ) :   0.9081 B(  0-C ,  5-C ) :   1.3191 B(  0-C ,  6-H ) :   0.8886
B(  0-C ,  7-H ) :   0.9243 B(  0-C ,  8-H ) :   0.2536 B(  0-C ,  9-H ) :   0.2421
B(  0-C , 10-H ) :   0.2863 B(  1-S ,  2-O ) :   1.5235 B(  1-S ,  3-F ) :   0.6863
B(  1-S ,  4-O ) :   1.5874 B(  2-O ,  4-O ) :   0.1146 B(  5-C ,  8-H ) :   0.7143
B(  5-C ,  9-H ) :   0.7046 B(  5-C , 10-H ) :   0.6356

Dispersion correction           -0.019521601
FINAL SINGLE POINT ENERGY      -727.217946967271

DIPOLE MOMENT
-------------
                                X             Y             Z
Electronic contribution:      6.96467      -4.95104      -4.30054
Nuclear contribution   :     -7.60849       4.87515       5.84588
                        -----------------------------------------
Total Dipole Moment    :     -0.64382      -0.07589       1.54534
                        -----------------------------------------
Magnitude (a.u.)       :      1.67581
Magnitude (Debye)      :      4.25957

Rotational constants in cm-1:     0.153704     0.080342     0.079431
Rotational constants in MHz :  4607.928650  2408.599360  2381.267225

                             ****ORCA TERMINATED NORMALLY****
TOTAL RUN TIME: 0 days 0 hours 0 minutes 10 seconds 481 msec
