                         Program Version 5.0.0 -  RELEASE  -
|  1> !BLYP D3BJ RIJCOSX def2-SVPD def2/J TightSCF
|  2> *xyz 0 1
|  3> C         -7.33044       -2.67899       -3.20681
|  4> S         -6.01966       -2.92697       -4.41913
|  5> O         -5.64583       -1.58838       -4.91931
|  6> O         -4.88196       -3.50370       -3.66724
|  7> F         -6.54927       -3.80515       -5.42507
|  8> C         -7.46900       -1.24615       -2.71383
|  9> H         -7.11825       -3.37982       -2.39805
| 10> H         -8.24184       -3.00474       -3.70651
| 11> H         -7.67580       -0.60214       -3.54292
| 12> H         -6.55749       -0.94096       -2.24382
| 13> H         -8.27114       -1.18777       -2.00810
| 14> *
| 15> %MaxCore 64000
| 16>
| 17> %pal nprocs 4
| 18> end
| 19>
| 20> %scf
| 21>   MaxIter 150
| 22> end
| 23>
| 24>
| 25>                          ****END OF INPUT****

CARTESIAN COORDINATES (ANGSTROEM)
---------------------------------
  C     -7.330440   -2.678990   -3.206810
  S     -6.019660   -2.926970   -4.419130
  O     -5.645830   -1.588380   -4.919310
  O     -4.881960   -3.503700   -3.667240
  F     -6.549270   -3.805150   -5.425070
  C     -7.469000   -1.246150   -2.713830
  H     -7.118250   -3.379820   -2.398050
  H     -8.241840   -3.004740   -3.706510
  H     -7.675800   -0.602140   -3.542920
  H     -6.557490   -0.940960   -2.243820
  H     -8.271140   -1.187770   -2.008100

 Total Charge           Charge          ....    0
 Multiplicity           Mult            ....    1
 Number of Electrons    NEL             ....   58
 Basis Dimension        Dim             ....  176

ORBITAL ENERGIES
----------------

  NO   OCC          E(Eh)            E(eV)
   0   2.0000     -88.382432     -2405.0082
   1   2.0000     -24.420958      -664.5281
   2   2.0000     -18.794418      -511.4221
   3   2.0000     -18.791510      -511.3430
   4   2.0000      -9.987265      -271.7673
   5   2.0000      -9.944382      -270.6004
   6   2.0000      -7.920286      -215.5219
   7   2.0000      -5.959725      -162.1724
   8   2.0000      -5.953071      -161.9913
   9   2.0000      -5.951438      -161.9469
  10   2.0000      -1.269731       -34.5511
  11   2.0000      -1.000564       -27.2267
  12   2.0000      -0.901861       -24.5409
  13   2.0000      -0.744617       -20.2621
  14   2.0000      -0.666582       -18.1386
  15   2.0000      -0.609599       -16.5880
  16   2.0000      -0.526648       -14.3308
  17   2.0000      -0.522125       -14.2078
  18   2.0000      -0.495696       -13.4886
  19   2.0000      -0.444541       -12.0966
  20   2.0000      -0.427115       -11.6224
  21   2.0000      -0.394508       -10.7351
  22   2.0000      -0.379567       -10.3285
  23   2.0000      -0.362069        -9.8524
  24   2.0000      -0.346805        -9.4371
  25   2.0000      -0.328728        -8.9451
  26   2.0000      -0.281935        -7.6718
  27   2.0000      -0.273192        -7.4339
  28   2.0000      -0.251198        -6.8355
  29   0.0000      -0.028340        -0.7712
  30   0.0000      -0.010136        -0.2758
  31   0.0000       0.009715         0.2644
  32   0.0000       0.022126         0.6021
  33   0.0000       0.027255         0.7416

MULLIKEN ATOMIC CHARGES
-----------------------
   0 C :   -0.094909
   1 S :    1.313495
   2 O :   -0.634874
   3 O :   -0.621351
   4 F :   -0.351296
   5 C :    1.194975
   6 H :   -0.145235
   7 H :   -0.123702
   8 H :   -0.112164
   9 H :   -0.138343
  10 H :   -0.286595
Sum of atomic charges:    0.0000000

LOEWDIN ATOMIC CHARGES
----------------------
   0 C :   -0.083764
   1 S :    1.093768
   2 O :   -0.455581
   3 O :   -0.463139
   4 F :   -0.246585
   5 C :    0.149812
   6 H :    0.018602
   7 H :    0.006904
   8 H :   -0.010439
   9 H :   -0.000627
  10 H :   -0.008952

  Mayer bond orders larger than 0.100000
B(  0-C ,  1-S ) :   0.9024 B(  0-C ,  5-C ) :   1.3307 B(  0-C ,  6-H ) :   0.9171
B(  0-C ,  7-H ) :   0.8879 B(  0-C ,  8-H ) :   0.2561 B(  0-C ,  9-H ) :   0.2336
B(  0-C , 10-H ) :   0.2859 B(  1-S ,  2-O ) :   1.5162 B(  1-S ,  3-O ) :   1.5215
B(  1-S ,  4-F ) :   0.7530 B(  5-C ,  7-H ) :   0.1133 B(  5-C ,  8-H ) :   0.7099
B(  5-C ,  9-H ) :   0.7170 B(  5-C , 10-H ) :   0.6375

Dispersion correction           -0.019550833
FINAL SINGLE POINT ENERGY      -727.199835581706

DIPOLE MOMENT
-------------
                                X             Y             Z
Electronic contribution:      4.17331      -5.43675      -7.24269
Nuclear contribution   :     -5.87110       5.18927       7.67759
                        -----------------------------------------
Total Dipole Moment    :     -1.69779      -0.24748       0.43490
                        -----------------------------------------
Magnitude (a.u.)       :      1.77000
Magnitude (Debye)      :      4.49898

Rotational constants in cm-1:     0.155988     0.080452     0.078187
Rotational constants in MHz :  4676.405251  2411.902056  2343.983816

                             ****ORCA TERMINATED NORMALLY****
TOTAL RUN TIME: 0 days 0 hours 0 minutes 10 seconds 625 msec
