                         Program Version 5.0.0 -  RELEASE  -
|  1> !BLYP D3BJ RIJCOSX def2-SVPD def2/J TightSCF xyzfile
|  2>
|  3> *xyzfile 0 1 D1.xyz
|  4>
|  5> %MaxCore 64000
|  6>
|  7> %pal nprocs 4
|  8> end
|  9>
| 10> %scf
| 11>   MaxIter 150
| 12> end
| 13>
| 14>
| 15>                          ****END OF INPUT****

CARTESIAN COORDINATES (ANGSTROEM)
---------------------------------
  C     -2.160376   -1.369486   -3.467104
  C     -3.030108   -1.910857   -4.541074
  C     -2.047717    0.146583   -3.511774
  C     -7.330440   -2.678991   -3.206811
  S     -6.019659   -2.926965   -4.419128
  H     -3.477443   -2.791513   -4.257096
  H     -2.538013   -2.017860   -5.438075
  H     -3.891589   -1.376039   -4.714365
  F     -5.645830   -1.588384   -4.919307
  O     -4.881961   -3.503697   -3.667235
  H     -1.184438   -1.843997   -3.566393
  H     -2.598195   -1.708376   -2.528477
  O     -6.549267   -3.805150   -5.425071
  C     -3.328755    0.875037   -3.103669
  H     -1.740034    0.452343   -4.517126
  H     -1.232611    0.434938   -2.842208
  C     -3.628487    0.771601   -1.609363
  H     -4.175106    0.490791   -3.682203
  H     -3.237812    1.928663   -3.381480
  C     -4.975718    1.361432   -1.190644
  H     -2.830700    1.276234   -1.054766
  H     -3.594312   -0.275838   -1.294603
  C     -6.184720    0.784347   -1.926464
  H     -4.956292    2.445725   -1.342200
  H     -5.097256    1.205252   -0.114136
  C     -6.286921   -0.735882   -1.893531
  H     -6.163994    1.100199   -2.974250
  H     -7.094530    1.223459   -1.504509
  C     -7.468999   -1.246153   -2.713833
  H     -6.360641   -1.090347   -0.859176
  H     -5.369848   -1.171853   -2.295982
  H     -7.601914   -0.601349   -3.585329
  H     -8.389791   -1.173436   -2.126922
  H     -7.118254   -3.379818   -2.398055
  H     -8.241838   -3.004745   -3.706513

 Total Charge           Charge          ....    0
 Multiplicity           Mult            ....    1
 Number of Electrons    NEL             ....  122
 Basis Dimension        Dim             ....  464

ORBITAL ENERGIES
----------------

  NO   OCC          E(Eh)            E(eV)
   0   2.0000     -88.386010     -2405.1056
   1   2.0000     -24.407196      -664.1536
   2   2.0000     -18.809610      -511.8355
   3   2.0000     -18.794174      -511.4155
   4   2.0000      -9.984053      -271.6799
   5   2.0000      -9.955050      -270.8907
   6   2.0000      -9.934292      -270.3258
   7   2.0000      -9.926492      -270.1136
   8   2.0000      -9.919668      -269.9279
   9   2.0000      -9.912966      -269.7455
  10   2.0000      -9.910592      -269.6809
  11   2.0000      -9.903086      -269.4767
  12   2.0000      -9.893887      -269.2263
  13   2.0000      -9.849829      -268.0275
  14   2.0000      -7.922575      -215.5842
  15   2.0000      -5.961904      -162.2317
  16   2.0000      -5.955738      -162.0639
  17   2.0000      -5.953835      -162.0121
  18   2.0000      -1.244206       -33.8566
  19   2.0000      -1.019675       -27.7468
  20   2.0000      -0.923387       -25.1266
  21   2.0000      -0.761965       -20.7341
  22   2.0000      -0.730164       -19.8688
  23   2.0000      -0.703454       -19.1420
  24   2.0000      -0.680030       -18.5045
  25   2.0000      -0.645875       -17.5752
  26   2.0000      -0.631042       -17.1715
  27   2.0000      -0.598064       -16.2741
  28   2.0000      -0.566150       -15.4057
  29   2.0000      -0.550980       -14.9929
  30   2.0000      -0.526009       -14.3134
  31   2.0000      -0.514957       -14.0127
  32   2.0000      -0.500962       -13.6319
  33   2.0000      -0.489719       -13.3259
  34   2.0000      -0.481097       -13.0913
  35   2.0000      -0.443255       -12.0616
  36   2.0000      -0.437419       -11.9028
  37   2.0000      -0.423493       -11.5238
  38   2.0000      -0.415717       -11.3122
  39   2.0000      -0.409534       -11.1440
  40   2.0000      -0.399595       -10.8735
  41   2.0000      -0.388687       -10.5767
  42   2.0000      -0.382188       -10.3999
  43   2.0000      -0.377246       -10.2654
  44   2.0000      -0.360780        -9.8173
  45   2.0000      -0.348183        -9.4745
  46   2.0000      -0.344325        -9.3695
  47   2.0000      -0.338378        -9.2077
  48   2.0000      -0.330970        -9.0061
  49   2.0000      -0.321572        -8.7504
  50   2.0000      -0.311756        -8.4833
  51   2.0000      -0.307265        -8.3611
  52   2.0000      -0.295758        -8.0480
  53   2.0000      -0.291436        -7.9304
  54   2.0000      -0.287006        -7.8098
  55   2.0000      -0.281070        -7.6483
  56   2.0000      -0.273712        -7.4481
  57   2.0000      -0.267066        -7.2672
  58   2.0000      -0.262896        -7.1538
  59   2.0000      -0.260931        -7.1003
  60   2.0000      -0.234140        -6.3713
  61   0.0000      -0.036196        -0.9849
  62   0.0000      -0.000908        -0.0247
  63   0.0000       0.004678         0.1273
  64   0.0000       0.008325         0.2265
  65   0.0000       0.014007         0.3811

MULLIKEN ATOMIC CHARGES
-----------------------
   0 C :    0.399662
   1 C :    2.605080
   2 C :    0.891564
   3 C :    0.781579
   4 S :    1.235430
   5 H :   -0.777347
   6 H :   -0.418536
   7 H :   -1.224504
   8 F :   -0.458073
   9 O :   -0.694382
  10 H :   -0.464117
  11 H :   -0.178451
  12 O :   -0.618157
  13 C :    0.794500
  14 H :   -0.261953
  15 H :   -0.270015
  16 C :    0.149908
  17 H :   -0.810455
  18 H :   -0.204773
  19 C :    1.011563
  20 H :   -0.532417
  21 H :   -0.014287
  22 C :    0.178843
  23 H :   -0.182165
  24 H :   -0.144964
  25 C :    0.729380
  26 H :    0.097808
  27 H :   -0.633701
  28 C :    0.620591
  29 H :   -0.174502
  30 H :   -0.618592
  31 H :   -0.052905
  32 H :   -0.375058
  33 H :   -0.181500
  34 H :   -0.205057
Sum of atomic charges:    0.0000000

LOEWDIN ATOMIC CHARGES
----------------------
   0 C :   -0.027662
   1 C :    0.136363
   2 C :   -0.018162
   3 C :   -0.020740
   4 S :    1.124618
   5 H :   -0.125307
   6 H :   -0.017351
   7 H :   -0.099917
   8 F :   -0.255197
   9 O :   -0.433658
  10 H :    0.019601
  11 H :    0.007394
  12 O :   -0.421721
  13 C :   -0.013438
  14 H :    0.020328
  15 H :    0.012580
  16 C :   -0.024805
  17 H :   -0.011281
  18 H :    0.021950
  19 C :   -0.019403
  20 H :    0.020705
  21 H :    0.001346
  22 C :   -0.028369
  23 H :    0.018484
  24 H :    0.017653
  25 C :   -0.014082
  26 H :    0.012187
  27 H :    0.021226
  28 C :   -0.034032
  29 H :    0.037194
  30 H :   -0.005839
  31 H :    0.018681
  32 H :    0.032245
  33 H :    0.031072
  34 H :    0.017336

  Mayer bond orders larger than 0.100000
B(  0-C ,  1-C ) :   0.7680 B(  0-C ,  2-C ) :   1.1955 B(  0-C ,  5-H ) :   0.5658
B(  0-C ,  6-H ) :   0.1455 B(  0-C ,  7-H ) :   0.5385 B(  0-C , 10-H ) :   0.6677
B(  0-C , 11-H ) :   0.6418 B(  0-C , 13-C ) :   0.1941 B(  0-C , 14-H ) :   0.1574
B(  0-C , 15-H ) :   0.2474 B(  0-C , 17-H ) :  -0.1099 B(  1-C ,  2-C ) :   0.1405
B(  1-C ,  4-S ) :   0.1024 B(  1-C ,  5-H ) :  -0.9220 B(  1-C ,  6-H ) :   0.3892
B(  1-C ,  7-H ) :  -1.5002 B(  1-C ,  9-O ) :  -0.1491 B(  1-C , 11-H ) :   0.3221
B(  2-C ,  7-H ) :  -0.1180 B(  2-C , 11-H ) :   0.1341 B(  2-C , 13-C ) :   1.1351
B(  2-C , 14-H ) :   0.5106 B(  2-C , 15-H ) :   0.5529 B(  2-C , 17-H ) :   0.2157
B(  2-C , 18-H ) :   0.1054 B(  2-C , 19-C ) :   0.1015 B(  3-C ,  4-S ) :   0.8418
B(  3-C , 12-O ) :   0.1158 B(  3-C , 25-C ) :   0.1592 B(  3-C , 28-C ) :   1.1940
B(  3-C , 33-H ) :   0.7865 B(  3-C , 34-H ) :   0.6041 B(  4-S ,  8-F ) :   0.6622
B(  4-S ,  9-O ) :   1.5026 B(  4-S , 12-O ) :   1.5692 B(  4-S , 33-H ) :   0.1211
B(  5-H ,  6-H ) :  -0.2126 B(  5-H ,  7-H ) :   1.2368 B(  5-H ,  9-O ) :   0.2293
B(  5-H , 10-H ) :   0.1063 B(  6-H ,  7-H ) :   0.1655 B(  7-H ,  8-F ) :   0.1505
B(  7-H ,  9-O ) :   0.1250 B(  7-H , 10-H ) :   0.1126 B(  7-H , 15-H ) :  -0.1075
B(  7-H , 17-H ) :   0.2053 B(  9-O , 12-O ) :   0.1262 B( 10-H , 11-H ) :  -0.1480
B( 10-H , 18-H ) :   0.1127 B( 11-H , 21-H ) :   0.1275 B( 13-C , 14-H ) :   0.2833
B( 13-C , 15-H ) :   0.1849 B( 13-C , 16-C ) :   1.1223 B( 13-C , 17-H ) :   0.4179
B( 13-C , 18-H ) :   0.5780 B( 13-C , 20-H ) :   0.2337 B( 13-C , 21-H ) :   0.1397
B( 14-H , 15-H ) :  -0.2297 B( 14-H , 17-H ) :   0.1038 B( 16-C , 17-H ) :   0.2961
B( 16-C , 18-H ) :   0.2378 B( 16-C , 19-C ) :   1.1235 B( 16-C , 20-H ) :   0.7827
B( 16-C , 21-H ) :   0.7986 B( 16-C , 22-C ) :   0.2422 B( 16-C , 23-H ) :   0.1857
B( 16-C , 24-H ) :   0.3707 B( 17-H , 26-H ) :   0.1249 B( 19-C , 22-C ) :   1.0963
B( 19-C , 23-H ) :   0.4945 B( 19-C , 24-H ) :   0.5064 B( 22-C , 23-H ) :   0.3304
B( 22-C , 24-H ) :   0.1472 B( 22-C , 25-C ) :   1.1968 B( 22-C , 26-H ) :   0.7345
B( 22-C , 27-H ) :   0.8139 B( 22-C , 28-C ) :   0.1803 B( 22-C , 29-H ) :   0.1277
B( 22-C , 30-H ) :   0.2067 B( 23-H , 24-H ) :  -0.1743 B( 25-C , 26-H ) :   0.1523
B( 25-C , 27-H ) :   0.1978 B( 25-C , 28-C ) :   1.1262 B( 25-C , 29-H ) :   0.5460
B( 25-C , 30-H ) :   0.4883 B( 25-C , 32-H ) :   0.2213 B( 26-H , 27-H ) :  -0.1307
B( 27-H , 31-H ) :  -0.1108 B( 28-C , 29-H ) :   0.1692 B( 28-C , 31-H ) :   0.7565
B( 28-C , 32-H ) :   0.5980 B( 28-C , 34-H ) :   0.2916 B( 29-H , 30-H ) :   0.2410
B( 31-H , 32-H ) :  -0.1115

Dispersion correction           -0.082031633
FINAL SINGLE POINT ENERGY     -1041.293797228265

DIPOLE MOMENT
-------------
                                X             Y             Z
Electronic contribution:    -10.83404     -16.22147     -13.17180
Nuclear contribution   :      9.63012      17.20461      14.03552
                        -----------------------------------------
Total Dipole Moment    :     -1.20393       0.98314       0.86372
                        -----------------------------------------
Magnitude (a.u.)       :      1.77820
Magnitude (Debye)      :      4.51983

Rotational constants in cm-1:     0.025899     0.015189     0.010690
Rotational constants in MHz :   776.424978   455.369614   320.488876

                             ****ORCA TERMINATED NORMALLY****
TOTAL RUN TIME: 0 days 0 hours 0 minutes 51 seconds 829 msec
