                         Program Version 5.0.0 -  RELEASE  -
|  1> !BLYP D3BJ RIJCOSX def2-SVPD def2/J TightSCF xyzfile
|  2>
|  3> *xyzfile 0 1 D3.xyz
|  4>
|  5> %MaxCore 64000
|  6>
|  7> %pal nprocs 4
|  8> end
|  9>
| 10> %scf
| 11>   MaxIter 150
| 12> end
| 13>
| 14>
| 15>                          ****END OF INPUT****

CARTESIAN COORDINATES (ANGSTROEM)
---------------------------------
  C     -2.160376   -1.369486   -3.467104
  C     -3.030108   -1.910857   -4.541074
  C     -2.047717    0.146583   -3.511774
  C     -7.330440   -2.678991   -3.206811
  S     -6.019659   -2.926965   -4.419128
  H     -3.477443   -2.791513   -4.257096
  H     -2.538013   -2.017860   -5.438075
  H     -3.891589   -1.376039   -4.714365
  O     -5.645830   -1.588384   -4.919307
  O     -4.881961   -3.503697   -3.667235
  H     -1.184438   -1.843997   -3.566393
  H     -2.598195   -1.708376   -2.528477
  F     -6.549267   -3.805150   -5.425071
  C     -3.328755    0.875037   -3.103669
  H     -1.740034    0.452343   -4.517126
  H     -1.232611    0.434938   -2.842208
  C     -3.628487    0.771601   -1.609363
  H     -4.175106    0.490791   -3.682203
  H     -3.237812    1.928663   -3.381480
  C     -4.975718    1.361432   -1.190644
  H     -2.830700    1.276234   -1.054766
  H     -3.594312   -0.275838   -1.294603
  C     -6.184720    0.784347   -1.926464
  H     -4.956292    2.445725   -1.342200
  H     -5.097256    1.205252   -0.114136
  C     -6.286921   -0.735882   -1.893531
  H     -6.163994    1.100199   -2.974250
  H     -7.094530    1.223459   -1.504509
  C     -7.468999   -1.246153   -2.713833
  H     -6.360641   -1.090347   -0.859176
  H     -5.369848   -1.171853   -2.295982
  H     -7.601914   -0.601349   -3.585329
  H     -8.389791   -1.173436   -2.126922
  H     -7.118254   -3.379818   -2.398055
  H     -8.241838   -3.004745   -3.706513

 Total Charge           Charge          ....    0
 Multiplicity           Mult            ....    1
 Number of Electrons    NEL             ....  122
 Basis Dimension        Dim             ....  464

ORBITAL ENERGIES
----------------

  NO   OCC          E(Eh)            E(eV)
   0   2.0000     -88.391976     -2405.2680
   1   2.0000     -24.427612      -664.7091
   2   2.0000     -18.802441      -511.6404
   3   2.0000     -18.799206      -511.5524
   4   2.0000      -9.986281      -271.7405
   5   2.0000      -9.948903      -270.7234
   6   2.0000      -9.923877      -270.0424
   7   2.0000      -9.916052      -269.8295
   8   2.0000      -9.910357      -269.6745
   9   2.0000      -9.902591      -269.4632
  10   2.0000      -9.896977      -269.3104
  11   2.0000      -9.891156      -269.1520
  12   2.0000      -9.880864      -268.8720
  13   2.0000      -9.829454      -267.4731
  14   2.0000      -7.928320      -215.7406
  15   2.0000      -5.967907      -162.3950
  16   2.0000      -5.961235      -162.2134
  17   2.0000      -5.959479      -162.1657
  18   2.0000      -1.275233       -34.7008
  19   2.0000      -1.012919       -27.5629
  20   2.0000      -0.914171       -24.8759
  21   2.0000      -0.756834       -20.5945
  22   2.0000      -0.721822       -19.6418
  23   2.0000      -0.694973       -18.9112
  24   2.0000      -0.678260       -18.4564
  25   2.0000      -0.648272       -17.6404
  26   2.0000      -0.622259       -16.9325
  27   2.0000      -0.590738       -16.0748
  28   2.0000      -0.558120       -15.1872
  29   2.0000      -0.539039       -14.6680
  30   2.0000      -0.530419       -14.4334
  31   2.0000      -0.523520       -14.2457
  32   2.0000      -0.502290       -13.6680
  33   2.0000      -0.494732       -13.4623
  34   2.0000      -0.468432       -12.7467
  35   2.0000      -0.444528       -12.0962
  36   2.0000      -0.435654       -11.8547
  37   2.0000      -0.417989       -11.3741
  38   2.0000      -0.415107       -11.2956
  39   2.0000      -0.406739       -11.0679
  40   2.0000      -0.393034       -10.6950
  41   2.0000      -0.383203       -10.4275
  42   2.0000      -0.372178       -10.1275
  43   2.0000      -0.367034        -9.9875
  44   2.0000      -0.353468        -9.6184
  45   2.0000      -0.339609        -9.2412
  46   2.0000      -0.333695        -9.0803
  47   2.0000      -0.331273        -9.0144
  48   2.0000      -0.320260        -8.7147
  49   2.0000      -0.307755        -8.3745
  50   2.0000      -0.302317        -8.2265
  51   2.0000      -0.293986        -7.9998
  52   2.0000      -0.289072        -7.8660
  53   2.0000      -0.285040        -7.7563
  54   2.0000      -0.277972        -7.5640
  55   2.0000      -0.269674        -7.3382
  56   2.0000      -0.265988        -7.2379
  57   2.0000      -0.262164        -7.1338
  58   2.0000      -0.248793        -6.7700
  59   2.0000      -0.237944        -6.4748
  60   2.0000      -0.223339        -6.0774
  61   0.0000      -0.030799        -0.8381
  62   0.0000      -0.013732        -0.3737
  63   0.0000       0.007518         0.2046
  64   0.0000       0.010138         0.2759
  65   0.0000       0.012940         0.3521

MULLIKEN ATOMIC CHARGES
-----------------------
   0 C :    0.398499
   1 C :    2.609466
   2 C :    0.891630
   3 C :    0.736133
   4 S :    1.406360
   5 H :   -0.820470
   6 H :   -0.398473
   7 H :   -1.229399
   8 O :   -0.693018
   9 O :   -0.696200
  10 H :   -0.475159
  11 H :   -0.173105
  12 F :   -0.495647
  13 C :    0.833261
  14 H :   -0.254529
  15 H :   -0.276381
  16 C :    0.143581
  17 H :   -0.841814
  18 H :   -0.194390
  19 C :    1.009556
  20 H :   -0.535463
  21 H :   -0.007293
  22 C :    0.167617
  23 H :   -0.183662
  24 H :   -0.148887
  25 C :    0.689449
  26 H :    0.105326
  27 H :   -0.627203
  28 C :    0.604257
  29 H :   -0.172091
  30 H :   -0.606695
  31 H :    0.002934
  32 H :   -0.392980
  33 H :   -0.164592
  34 H :   -0.210616
Sum of atomic charges:    0.0000000

LOEWDIN ATOMIC CHARGES
----------------------
   0 C :   -0.031790
   1 C :    0.135834
   2 C :   -0.018948
   3 C :   -0.032232
   4 S :    1.156381
   5 H :   -0.126402
   6 H :   -0.020352
   7 H :   -0.118248
   8 O :   -0.431194
   9 O :   -0.433966
  10 H :    0.015340
  11 H :    0.005268
  12 F :   -0.233539
  13 C :   -0.010061
  14 H :    0.019694
  15 H :    0.010019
  16 C :   -0.025996
  17 H :   -0.006129
  18 H :    0.020579
  19 C :   -0.020789
  20 H :    0.018840
  21 H :    0.000527
  22 C :   -0.025884
  23 H :    0.017477
  24 H :    0.015784
  25 C :   -0.011292
  26 H :    0.016042
  27 H :    0.019308
  28 C :   -0.023803
  29 H :    0.034036
  30 H :   -0.001868
  31 H :    0.020847
  32 H :    0.033071
  33 H :    0.023866
  34 H :    0.009585

  Mayer bond orders larger than 0.100000
B(  0-C ,  1-C ) :   0.7790 B(  0-C ,  2-C ) :   1.1940 B(  0-C ,  5-H ) :   0.5586
B(  0-C ,  6-H ) :   0.1535 B(  0-C ,  7-H ) :   0.5319 B(  0-C , 10-H ) :   0.6732
B(  0-C , 11-H ) :   0.6362 B(  0-C , 13-C ) :   0.1882 B(  0-C , 14-H ) :   0.1656
B(  0-C , 15-H ) :   0.2486 B(  0-C , 17-H ) :  -0.1097 B(  1-C ,  2-C ) :   0.1235
B(  1-C ,  5-H ) :  -0.9288 B(  1-C ,  6-H ) :   0.4031 B(  1-C ,  7-H ) :  -1.4197
B(  1-C ,  9-O ) :  -0.1365 B(  1-C , 11-H ) :   0.3299 B(  2-C ,  7-H ) :  -0.1174
B(  2-C , 11-H ) :   0.1362 B(  2-C , 13-C ) :   1.1275 B(  2-C , 14-H ) :   0.5083
B(  2-C , 15-H ) :   0.5468 B(  2-C , 17-H ) :   0.2232 B(  2-C , 18-H ) :   0.1052
B(  2-C , 19-C ) :   0.1014 B(  3-C ,  4-S ) :   0.8678 B(  3-C , 12-F ) :   0.1122
B(  3-C , 25-C ) :   0.1670 B(  3-C , 28-C ) :   1.2053 B(  3-C , 31-H ) :   0.1106
B(  3-C , 33-H ) :   0.8055 B(  3-C , 34-H ) :   0.5717 B(  4-S ,  8-O ) :   1.4162
B(  4-S ,  9-O ) :   1.4260 B(  4-S , 12-F ) :   0.6017 B(  4-S , 33-H ) :   0.1098
B(  5-H ,  6-H ) :  -0.2529 B(  5-H ,  7-H ) :   1.2604 B(  5-H ,  9-O ) :   0.2561
B(  5-H , 10-H ) :   0.1076 B(  6-H ,  7-H ) :   0.1786 B(  7-H ,  8-O ) :   0.1064
B(  7-H ,  9-O ) :   0.1626 B(  7-H , 10-H ) :   0.1188 B(  7-H , 15-H ) :  -0.1162
B(  7-H , 17-H ) :   0.2155 B(  8-O ,  9-O ) :   0.1311 B( 10-H , 11-H ) :  -0.1555
B( 10-H , 18-H ) :   0.1078 B( 11-H , 21-H ) :   0.1327 B( 13-C , 14-H ) :   0.2797
B( 13-C , 15-H ) :   0.1853 B( 13-C , 16-C ) :   1.1086 B( 13-C , 17-H ) :   0.3664
B( 13-C , 18-H ) :   0.5686 B( 13-C , 20-H ) :   0.2333 B( 13-C , 21-H ) :   0.1335
B( 14-H , 15-H ) :  -0.2284 B( 14-H , 17-H ) :   0.1133 B( 16-C , 17-H ) :   0.3123
B( 16-C , 18-H ) :   0.2411 B( 16-C , 19-C ) :   1.1220 B( 16-C , 20-H ) :   0.7843
B( 16-C , 21-H ) :   0.7940 B( 16-C , 22-C ) :   0.2464 B( 16-C , 23-H ) :   0.1883
B( 16-C , 24-H ) :   0.3720 B( 17-H , 26-H ) :   0.1261 B( 19-C , 22-C ) :   1.0953
B( 19-C , 23-H ) :   0.4969 B( 19-C , 24-H ) :   0.5031 B( 22-C , 23-H ) :   0.3304
B( 22-C , 24-H ) :   0.1477 B( 22-C , 25-C ) :   1.2149 B( 22-C , 26-H ) :   0.7302
B( 22-C , 27-H ) :   0.8130 B( 22-C , 28-C ) :   0.1884 B( 22-C , 29-H ) :   0.1289
B( 22-C , 30-H ) :   0.1974 B( 23-H , 24-H ) :  -0.1740 B( 25-C , 26-H ) :   0.1545
B( 25-C , 27-H ) :   0.1965 B( 25-C , 28-C ) :   1.1361 B( 25-C , 29-H ) :   0.5444
B( 25-C , 30-H ) :   0.5116 B( 25-C , 32-H ) :   0.2234 B( 26-H , 27-H ) :  -0.1216
B( 27-H , 31-H ) :  -0.1075 B( 28-C , 29-H ) :   0.1665 B( 28-C , 31-H ) :   0.7577
B( 28-C , 32-H ) :   0.5969 B( 28-C , 34-H ) :   0.3030 B( 29-H , 30-H ) :   0.2619

Dispersion correction           -0.082824075
FINAL SINGLE POINT ENERGY     -1041.279740542736

DIPOLE MOMENT
-------------
                                X             Y             Z
Electronic contribution:    -12.59285     -20.23825     -14.28864
Nuclear contribution   :     10.70731      19.84772      14.63855
                        -----------------------------------------
Total Dipole Moment    :     -1.88553      -0.39053       0.34991
                        -----------------------------------------
Magnitude (a.u.)       :      1.95709
Magnitude (Debye)      :      4.97452

Rotational constants in cm-1:     0.026014     0.014812     0.010477
Rotational constants in MHz :   779.874765   444.063394   314.081855

                             ****ORCA TERMINATED NORMALLY****
TOTAL RUN TIME: 0 days 0 hours 0 minutes 52 seconds 784 msec
