                         Program Version 5.0.0 -  RELEASE  -
|  1> !BLYP D3BJ RIJCOSX def2-SVPD def2/J TightSCF
|  2> *xyz -1 1
|  3> C          1.69499        1.54179       -5.57045
|  4> S          1.78029       -0.03313       -6.42874
|  5> O          2.56929        0.21366       -7.60736
|  6> O          0.41688       -0.46297       -6.61859
|  7> O          2.50513       -0.93326       -5.48257
|  8> H          1.18489        2.25500       -6.18367
|  9> H          2.68564        1.89081       -5.36624
| 10> H          1.16361        1.41804       -4.65000
| 11> *
| 12> %MaxCore 64000
| 13>
| 14> %pal nprocs 8
| 15> end
| 16>
| 17> %scf
| 18>   MaxIter 150
| 19> end
| 20>
| 21>
| 22>                          ****END OF INPUT****

CARTESIAN COORDINATES (ANGSTROEM)
---------------------------------
  C      1.694990    1.541790   -5.570450
  S      1.780290   -0.033130   -6.428740
  O      2.569290    0.213660   -7.607360
  O      0.416880   -0.462970   -6.618590
  O      2.505130   -0.933260   -5.482570
  H      1.184890    2.255000   -6.183670
  H      2.685640    1.890810   -5.366240
  H      1.163610    1.418040   -4.650000

 Total Charge           Charge          ....   -1
 Multiplicity           Mult            ....    1
 Number of Electrons    NEL             ....   50
 Basis Dimension        Dim             ....  140

ORBITAL ENERGIES
----------------

  NO   OCC          E(Eh)            E(eV)
   0   2.0000     -88.128554     -2398.0999
   1   2.0000     -18.571203      -505.3481
   2   2.0000     -18.570079      -505.3176
   3   2.0000     -18.553674      -504.8711
   4   2.0000      -9.773516      -265.9509
   5   2.0000      -7.665181      -208.5802
   6   2.0000      -5.700255      -155.1118
   7   2.0000      -5.700098      -155.1076
   8   2.0000      -5.699623      -155.0946
   9   2.0000      -0.833480       -22.6801
  10   2.0000      -0.702872       -19.1261
  11   2.0000      -0.670357       -18.2413
  12   2.0000      -0.503536       -13.7019
  13   2.0000      -0.322954        -8.7880
  14   2.0000      -0.242779        -6.6063
  15   2.0000      -0.235950        -6.4205
  16   2.0000      -0.234903        -6.3920
  17   2.0000      -0.193789        -5.2733
  18   2.0000      -0.190640        -5.1876
  19   2.0000      -0.098652        -2.6845
  20   2.0000      -0.098342        -2.6760
  21   2.0000      -0.067326        -1.8320
  22   2.0000      -0.066593        -1.8121
  23   2.0000      -0.047545        -1.2938
  24   2.0000      -0.013437        -0.3656
  25   0.0000       0.135999         3.7007
  26   0.0000       0.174576         4.7504
  27   0.0000       0.175265         4.7692
  28   0.0000       0.177835         4.8391
  29   0.0000       0.199652         5.4328

MULLIKEN ATOMIC CHARGES
-----------------------
   0 C :    0.909816
   1 S :    0.908511
   2 O :   -0.693554
   3 O :   -0.695061
   4 O :   -0.756574
   5 H :   -0.230453
   6 H :   -0.218685
   7 H :   -0.224001
Sum of atomic charges:   -1.0000000

LOEWDIN ATOMIC CHARGES
----------------------
   0 C :    0.063465
   1 S :    0.788579
   2 O :   -0.561823
   3 O :   -0.560942
   4 O :   -0.588947
   5 H :   -0.048745
   6 H :   -0.045511
   7 H :   -0.046077

  Mayer bond orders larger than 0.100000
B(  0-C ,  1-S ) :   0.9090 B(  0-C ,  5-H ) :   0.8415 B(  0-C ,  6-H ) :   0.8460
B(  0-C ,  7-H ) :   0.8463 B(  1-S ,  2-O ) :   1.3850 B(  1-S ,  3-O ) :   1.3821
B(  1-S ,  4-O ) :   1.3317 B(  1-S ,  5-H ) :   0.1354 B(  1-S ,  6-H ) :   0.1473
B(  1-S ,  7-H ) :   0.1471

Dispersion correction           -0.013627803
FINAL SINGLE POINT ENERGY      -663.443460745486

DIPOLE MOMENT
-------------
                                X             Y             Z
Electronic contribution:      0.12612      -3.74247      -2.20118
Nuclear contribution   :     -0.31747       5.08000       2.69095
                        -----------------------------------------
Total Dipole Moment    :     -0.19136       1.33752       0.48977
                        -----------------------------------------
Magnitude (a.u.)       :      1.43717
Magnitude (Debye)      :      3.65300

Rotational constants in cm-1:     0.172246     0.157831     0.154490
Rotational constants in MHz :  5163.797750  4731.657963  4631.481993

                             ****ORCA TERMINATED NORMALLY****
TOTAL RUN TIME: 0 days 0 hours 0 minutes 3 seconds 278 msec
