                         Program Version 5.0.0 -  RELEASE  -
|  1> !BLYP D3BJ RIJCOSX def2-SVPD def2/J TightSCF
|  2> *xyz 1 1
|  3> C          1.96337       -1.74915       -1.89689
|  4> N          2.73849       -2.01517       -3.09711
|  5> C          4.04974       -2.15472       -3.15204
|  6> N          4.65821       -1.98629       -4.31866
|  7> N          4.76423       -2.45444       -2.05049
|  8> H          4.28736       -2.77626       -1.21750
|  9> H          5.75082       -2.65835       -2.12599
| 10> H          2.34518       -1.69027       -3.97145
| 11> H          4.10900       -1.59268       -5.07176
| 12> H          5.64910       -2.15646       -4.42724
| 13> H          0.92556       -1.68522       -2.14942
| 14> H          2.28268       -0.82430       -1.46378
| 15> H          2.11118       -2.54207       -1.19381
| 16> *
| 17> %MaxCore 64000
| 18>
| 19> %pal nprocs 8
| 20> end
| 21>
| 22> %scf
| 23>   MaxIter 150
| 24> end
| 25>
| 26>
| 27>                          ****END OF INPUT****

CARTESIAN COORDINATES (ANGSTROEM)
---------------------------------
  C      1.963370   -1.749150   -1.896890
  N      2.738490   -2.015170   -3.097110
  C      4.049740   -2.154720   -3.152040
  N      4.658210   -1.986290   -4.318660
  N      4.764230   -2.454440   -2.050490
  H      4.287360   -2.776260   -1.217500
  H      5.750820   -2.658350   -2.125990
  H      2.345180   -1.690270   -3.971450
  H      4.109000   -1.592680   -5.071760
  H      5.649100   -2.156460   -4.427240
  H      0.925560   -1.685220   -2.149420
  H      2.282680   -0.824300   -1.463780
  H      2.111180   -2.542070   -1.193810

 Total Charge           Charge          ....    1
 Multiplicity           Mult            ....    1
 Number of Electrons    NEL             ....   40
 Basis Dimension        Dim             ....  164

ORBITAL ENERGIES
----------------

  NO   OCC          E(Eh)            E(eV)
   0   2.0000     -14.252506      -387.8304
   1   2.0000     -14.251753      -387.8099
   2   2.0000     -14.250892      -387.7865
   3   2.0000     -10.252252      -278.9779
   4   2.0000     -10.129214      -275.6299
   5   2.0000      -1.121539       -30.5186
   6   2.0000      -1.017405       -27.6850
   7   2.0000      -1.005668       -27.3656
   8   2.0000      -0.834327       -22.7032
   9   2.0000      -0.765416       -20.8280
  10   2.0000      -0.729495       -19.8506
  11   2.0000      -0.702257       -19.1094
  12   2.0000      -0.646782       -17.5998
  13   2.0000      -0.640058       -17.4169
  14   2.0000      -0.602260       -16.3883
  15   2.0000      -0.599219       -16.3056
  16   2.0000      -0.543790       -14.7973
  17   2.0000      -0.532374       -14.4866
  18   2.0000      -0.437847       -11.9144
  19   2.0000      -0.417963       -11.3733
  20   0.0000      -0.204807        -5.5731
  21   0.0000      -0.185224        -5.0402
  22   0.0000      -0.147806        -4.0220
  23   0.0000      -0.141274        -3.8443
  24   0.0000      -0.116671        -3.1748

MULLIKEN ATOMIC CHARGES
-----------------------
   0 C :    1.472627
   1 N :   -0.328111
   2 C :    0.986461
   3 N :    0.205038
   4 N :    0.246824
   5 H :   -0.130296
   6 H :   -0.185951
   7 H :   -0.232364
   8 H :   -0.072226
   9 H :   -0.170913
  10 H :   -0.434303
  11 H :   -0.154314
  12 H :   -0.202470
Sum of atomic charges:    1.0000000

LOEWDIN ATOMIC CHARGES
----------------------
   0 C :    0.264621
   1 N :    0.036676
   2 C :   -0.066531
   3 N :    0.284141
   4 N :    0.301383
   5 H :    0.018508
   6 H :    0.032096
   7 H :    0.048191
   8 H :    0.033465
   9 H :    0.038704
  10 H :    0.009944
  11 H :    0.005654
  12 H :   -0.006851

  Mayer bond orders larger than 0.100000
B(  0-C ,  1-N ) :   1.0327 B(  0-C ,  7-H ) :  -0.1062 B(  0-C , 10-H ) :   0.6685
B(  0-C , 11-H ) :   0.7588 B(  0-C , 12-H ) :   0.7543 B(  1-N ,  2-C ) :   1.1018
B(  1-N ,  3-N ) :   0.2760 B(  1-N ,  4-N ) :   0.2355 B(  1-N ,  7-H ) :   1.2002
B(  1-N , 10-H ) :   0.2197 B(  1-N , 11-H ) :   0.1381 B(  1-N , 12-H ) :   0.1762
B(  2-C ,  3-N ) :   0.9400 B(  2-C ,  4-N ) :   1.0578 B(  2-C ,  5-H ) :  -0.1692
B(  2-C ,  6-H ) :  -0.1459 B(  2-C ,  7-H ) :  -0.2060 B(  2-C ,  8-H ) :  -0.1400
B(  2-C ,  9-H ) :  -0.1768 B(  3-N ,  4-N ) :   0.1697 B(  3-N ,  8-H ) :   1.1517
B(  3-N ,  9-H ) :   1.2810 B(  4-N ,  5-H ) :   1.1331 B(  4-N ,  6-H ) :   1.2302
B(  5-H ,  6-H ) :  -0.2100 B(  8-H ,  9-H ) :  -0.1923

Dispersion correction           -0.018502046
FINAL SINGLE POINT ENERGY      -244.836171630212

DIPOLE MOMENT
-------------
                                X             Y             Z
Electronic contribution:      2.03868      -0.55848      -1.79718
Nuclear contribution   :     -1.59972       0.59064       1.48941
                        -----------------------------------------
Total Dipole Moment    :      0.43896       0.03216      -0.30777
                        -----------------------------------------
Magnitude (a.u.)       :      0.53707
Magnitude (Debye)      :      1.36512

Rotational constants in cm-1:     0.309236     0.134358     0.096189
Rotational constants in MHz :  9270.657746  4027.948155  2883.671905

                             ****ORCA TERMINATED NORMALLY****
TOTAL RUN TIME: 0 days 0 hours 0 minutes 4 seconds 661 msec
