                         Program Version 5.0.0 -  RELEASE  -
|  1> !BLYP D3BJ RIJCOSX def2-SVPD def2/J TightSCF xyzfile
|  2>
|  3> *xyzfile 0 1 B.xyz
|  4>
|  5> %MaxCore 64000
|  6>
|  7> %pal nprocs 4
|  8> end
|  9>
| 10> %scf
| 11>   MaxIter 150
| 12> end
| 13>
| 14>
| 15>                          ****END OF INPUT****

CARTESIAN COORDINATES (ANGSTROEM)
---------------------------------
  C      1.963365   -1.749150   -1.896887
  N      2.738490   -2.015170   -3.097113
  C      0.611877    1.657634   -4.500288
  C      1.694991    1.541794   -5.570447
  H      2.697326    1.734659   -5.183996
  H      1.506656    2.272239   -6.358076
  S      1.780287   -0.033128   -6.428739
  C      4.049736   -2.154717   -3.152044
  N      4.658206   -1.986293   -4.318655
  N      4.764231   -2.454435   -2.050491
  H      4.287363   -2.776259   -1.217496
  H      5.750825   -2.658351   -2.125988
  H      2.345176   -1.690274   -3.971447
  H      4.109004   -1.592677   -5.071760
  H      5.649095   -2.156462   -4.427237
  O      2.569287    0.213657   -7.607360
  O      0.416880   -0.462969   -6.618595
  C      2.088520   -0.300912   -1.415204
  H      2.231272   -2.451616   -1.102643
  H      0.930249   -1.977801   -2.155438
  C      0.680356    0.655418   -3.348038
  H     -0.356865    1.549231   -4.991128
  H      0.650228    2.675438   -4.096000
  C      1.968993    0.733582   -2.535654
  H      3.051356   -0.168602   -0.911868
  H      1.316501   -0.136231   -0.657252
  O      2.505129   -0.933263   -5.482570
  H      2.824195    0.624726   -3.208464
  H      2.058919    1.730331   -2.093112
  H      0.542252   -0.344731   -3.766662
  H     -0.174219    0.829692   -2.685182

 Total Charge           Charge          ....    0
 Multiplicity           Mult            ....    1
 Number of Electrons    NEL             ....  120
 Basis Dimension        Dim             ....  432

ORBITAL ENERGIES
----------------

  NO   OCC          E(Eh)            E(eV)
   0   2.0000     -88.276624     -2402.1291
   1   2.0000     -18.730109      -509.6722
   2   2.0000     -18.710662      -509.1430
   3   2.0000     -18.709318      -509.1064
   4   2.0000     -14.109921      -383.9505
   5   2.0000     -14.081014      -383.1639
   6   2.0000     -14.075560      -383.0154
   7   2.0000     -10.094245      -274.6784
   8   2.0000      -9.993521      -271.9375
   9   2.0000      -9.945023      -270.6178
  10   2.0000      -9.926093      -270.1027
  11   2.0000      -9.914237      -269.7801
  12   2.0000      -9.910622      -269.6817
  13   2.0000      -9.910542      -269.6796
  14   2.0000      -7.812143      -212.5792
  15   2.0000      -5.848332      -159.1412
  16   2.0000      -5.846784      -159.0991
  17   2.0000      -5.845790      -159.0720
  18   2.0000      -0.983061       -26.7504
  19   2.0000      -0.963659       -26.2225
  20   2.0000      -0.864175       -23.5154
  21   2.0000      -0.850421       -23.1411
  22   2.0000      -0.842244       -22.9186
  23   2.0000      -0.838785       -22.8245
  24   2.0000      -0.736660       -20.0455
  25   2.0000      -0.700287       -19.0558
  26   2.0000      -0.657591       -17.8940
  27   2.0000      -0.625059       -17.0087
  28   2.0000      -0.601358       -16.3638
  29   2.0000      -0.575168       -15.6511
  30   2.0000      -0.563581       -15.3358
  31   2.0000      -0.533249       -14.5104
  32   2.0000      -0.510364       -13.8877
  33   2.0000      -0.499144       -13.5824
  34   2.0000      -0.488661       -13.2971
  35   2.0000      -0.465187       -12.6584
  36   2.0000      -0.446221       -12.1423
  37   2.0000      -0.430026       -11.7016
  38   2.0000      -0.425836       -11.5876
  39   2.0000      -0.416427       -11.3316
  40   2.0000      -0.402135       -10.9427
  41   2.0000      -0.386948       -10.5294
  42   2.0000      -0.377015       -10.2591
  43   2.0000      -0.368128       -10.0173
  44   2.0000      -0.350818        -9.5462
  45   2.0000      -0.343402        -9.3444
  46   2.0000      -0.333243        -9.0680
  47   2.0000      -0.325460        -8.8562
  48   2.0000      -0.319864        -8.7040
  49   2.0000      -0.292890        -7.9699
  50   2.0000      -0.290124        -7.8947
  51   2.0000      -0.286937        -7.8080
  52   2.0000      -0.273696        -7.4476
  53   2.0000      -0.257432        -7.0051
  54   2.0000      -0.254299        -6.9198
  55   2.0000      -0.246138        -6.6978
  56   2.0000      -0.215976        -5.8770
  57   2.0000      -0.205038        -5.5794
  58   2.0000      -0.202477        -5.5097
  59   2.0000      -0.172347        -4.6898
  60   0.0000      -0.054424        -1.4810
  61   0.0000      -0.051384        -1.3982
  62   0.0000      -0.022978        -0.6253
  63   0.0000       0.003760         0.1023
  64   0.0000       0.010613         0.2888

MULLIKEN ATOMIC CHARGES
-----------------------
   0 C :    1.294906
   1 N :    0.257629
   2 C :    0.774472
   3 C :    0.468227
   4 H :   -0.098799
   5 H :   -0.311333
   6 S :    1.193661
   7 C :    0.954499
   8 N :    0.575978
   9 N :    0.347978
  10 H :   -0.132935
  11 H :   -0.276603
  12 H :   -0.751645
  13 H :   -0.300954
  14 H :   -0.310262
  15 O :   -0.701051
  16 O :   -0.742296
  17 C :    0.758783
  18 H :   -0.652270
  19 H :   -0.265774
  20 C :    0.277074
  21 H :   -0.150149
  22 H :   -0.200436
  23 C :    0.292637
  24 H :   -0.220580
  25 H :   -0.187557
  26 O :   -0.793563
  27 H :   -0.076254
  28 H :   -0.499080
  29 H :   -0.174578
  30 H :   -0.349728
Sum of atomic charges:   -0.0000000

LOEWDIN ATOMIC CHARGES
----------------------
   0 C :    0.079379
   1 N :    0.092752
   2 C :   -0.024520
   3 C :   -0.063828
   4 H :    0.001246
   5 H :    0.011186
   6 S :    0.914342
   7 C :   -0.061369
   8 N :    0.299953
   9 N :    0.271907
  10 H :   -0.002553
  11 H :    0.010883
  12 H :   -0.075047
  13 H :   -0.066997
  14 H :    0.020672
  15 O :   -0.499169
  16 O :   -0.496010
  17 C :   -0.002811
  18 H :    0.005015
  19 H :    0.027915
  20 C :   -0.016938
  21 H :    0.022204
  22 H :    0.019803
  23 C :   -0.018945
  24 H :    0.009311
  25 H :    0.022117
  26 O :   -0.531882
  27 H :    0.002172
  28 H :    0.023635
  29 H :    0.000720
  30 H :    0.024856

  Mayer bond orders larger than 0.100000
B(  0-C ,  1-N ) :   0.9614 B(  0-C , 12-H ) :  -0.3748 B(  0-C , 17-C ) :   1.0143
B(  0-C , 18-H ) :   0.6790 B(  0-C , 19-H ) :   0.4892 B(  0-C , 23-C ) :   0.1782
B(  0-C , 25-H ) :   0.1526 B(  1-N ,  7-C ) :   1.1400 B(  1-N ,  8-N ) :   0.1190
B(  1-N ,  9-N ) :   0.2447 B(  1-N , 12-H ) :   1.0954 B(  1-N , 13-H ) :   0.1130
B(  1-N , 18-H ) :   0.1233 B(  1-N , 19-H ) :   0.2110 B(  2-C ,  3-C ) :   1.1955
B(  2-C ,  4-H ) :   0.1369 B(  2-C ,  5-H ) :   0.2196 B(  2-C , 20-C ) :   1.2227
B(  2-C , 21-H ) :   0.4852 B(  2-C , 22-H ) :   0.6304 B(  2-C , 29-H ) :   0.1266
B(  3-C ,  4-H ) :   0.8288 B(  3-C ,  5-H ) :   0.7034 B(  3-C ,  6-S ) :   0.9295
B(  3-C , 20-C ) :   0.1160 B(  3-C , 21-H ) :   0.1596 B(  3-C , 22-H ) :   0.2041
B(  6-S , 15-O ) :   1.4309 B(  6-S , 16-O ) :   1.3132 B(  6-S , 26-O ) :   1.1669
B(  7-C ,  8-N ) :   0.9353 B(  7-C ,  9-N ) :   0.9744 B(  7-C , 10-H ) :  -0.1397
B(  7-C , 11-H ) :  -0.1319 B(  7-C , 12-H ) :  -0.5108 B(  7-C , 13-H ) :  -0.2325
B(  7-C , 14-H ) :  -0.2273 B(  8-N ,  9-N ) :   0.1598 B(  8-N , 13-H ) :   1.1361
B(  8-N , 14-H ) :   1.3324 B(  9-N , 10-H ) :   1.0960 B(  9-N , 11-H ) :   1.2771
B( 10-H , 11-H ) :  -0.2445 B( 12-H , 19-H ) :   0.1944 B( 12-H , 24-H ) :   0.1229
B( 12-H , 26-O ) :   0.1543 B( 12-H , 27-H ) :   0.1260 B( 12-H , 28-H ) :  -0.1464
B( 13-H , 14-H ) :  -0.2374 B( 13-H , 26-O ) :   0.2544 B( 16-O , 26-O ) :   0.1323
B( 17-C , 18-H ) :   0.1807 B( 17-C , 19-H ) :   0.1180 B( 17-C , 23-C ) :   1.2047
B( 17-C , 24-H ) :   0.6085 B( 17-C , 25-H ) :   0.7125 B( 18-H , 19-H ) :  -0.2166
B( 20-C , 21-H ) :   0.3731 B( 20-C , 22-H ) :   0.1114 B( 20-C , 23-C ) :   1.1931
B( 20-C , 27-H ) :   0.1574 B( 20-C , 28-H ) :   0.1589 B( 20-C , 29-H ) :   0.8652
B( 20-C , 30-H ) :   0.6652 B( 21-H , 22-H ) :  -0.1440 B( 23-C , 24-H ) :   0.2871
B( 23-C , 25-H ) :   0.1592 B( 23-C , 27-H ) :   0.7939 B( 23-C , 28-H ) :   0.7241
B( 23-C , 29-H ) :   0.1257 B( 23-C , 30-H ) :   0.1687 B( 24-H , 25-H ) :  -0.1297

Dispersion correction           -0.075566865
FINAL SINGLE POINT ENERGY     -1064.329601542188

DIPOLE MOMENT
-------------
                                X             Y             Z
Electronic contribution:      2.18963      -4.94069     -14.27687
Nuclear contribution   :      0.44641       3.59123      19.13564
                        -----------------------------------------
Total Dipole Moment    :      2.63604      -1.34946       4.85877
                        -----------------------------------------
Magnitude (a.u.)       :      5.69011
Magnitude (Debye)      :     14.46312

Rotational constants in cm-1:     0.029186     0.014646     0.011115
Rotational constants in MHz :   874.975540   439.070287   333.231642

                             ****ORCA TERMINATED NORMALLY****
TOTAL RUN TIME: 0 days 0 hours 0 minutes 41 seconds 791 msec
