                         Program Version 5.0.0 -  RELEASE  -
|  1> !BLYP D3BJ RIJCOSX def2-SVPD def2/J TightSCF
|  2> *xyz 0 1
|  3> C          1.69499        1.54179       -5.57045
|  4> S          1.78029       -0.03313       -6.42874
|  5> F          2.56929        0.21366       -7.60736
|  6> O          0.41688       -0.46297       -6.61859
|  7> O          2.50513       -0.93326       -5.48257
|  8> H          1.18489        2.25500       -6.18367
|  9> H          2.68564        1.89081       -5.36624
| 10> H          1.16361        1.41804       -4.65000
| 11> *
| 12> %MaxCore 64000
| 13>
| 14> %pal nprocs 8
| 15> end
| 16>
| 17> %scf
| 18>   MaxIter 150
| 19> end
| 20>
| 21>
| 22>                          ****END OF INPUT****

CARTESIAN COORDINATES (ANGSTROEM)
---------------------------------
  C      1.694990    1.541790   -5.570450
  S      1.780290   -0.033130   -6.428740
  F      2.569290    0.213660   -7.607360
  O      0.416880   -0.462970   -6.618590
  O      2.505130   -0.933260   -5.482570
  H      1.184890    2.255000   -6.183670
  H      2.685640    1.890810   -5.366240
  H      1.163610    1.418040   -4.650000

 Total Charge           Charge          ....    0
 Multiplicity           Mult            ....    1
 Number of Electrons    NEL             ....   50
 Basis Dimension        Dim             ....  140

ORBITAL ENERGIES
----------------

  NO   OCC          E(Eh)            E(eV)
   0   2.0000     -88.390464     -2405.2268
   1   2.0000     -24.423491      -664.5970
   2   2.0000     -18.808337      -511.8009
   3   2.0000     -18.790242      -511.3085
   4   2.0000      -9.982488      -271.6373
   5   2.0000      -7.927831      -215.7272
   6   2.0000      -5.967235      -162.3767
   7   2.0000      -5.960548      -162.1948
   8   2.0000      -5.959273      -162.1601
   9   2.0000      -1.271540       -34.6004
  10   2.0000      -1.014948       -27.6181
  11   2.0000      -0.910320       -24.7711
  12   2.0000      -0.725928       -19.7535
  13   2.0000      -0.651195       -17.7199
  14   2.0000      -0.543309       -14.7842
  15   2.0000      -0.524654       -14.2766
  16   2.0000      -0.496999       -13.5240
  17   2.0000      -0.428418       -11.6579
  18   2.0000      -0.425268       -11.5721
  19   2.0000      -0.416651       -11.3377
  20   2.0000      -0.387915       -10.5557
  21   2.0000      -0.337349        -9.1797
  22   2.0000      -0.295802        -8.0492
  23   2.0000      -0.276903        -7.5349
  24   2.0000      -0.257522        -7.0075
  25   0.0000      -0.034323        -0.9340
  26   0.0000       0.004542         0.1236
  27   0.0000       0.009584         0.2608
  28   0.0000       0.030346         0.8258
  29   0.0000       0.031727         0.8633

MULLIKEN ATOMIC CHARGES
-----------------------
   0 C :    0.878295
   1 S :    1.087886
   2 F :   -0.329107
   3 O :   -0.549621
   4 O :   -0.605553
   5 H :   -0.162314
   6 H :   -0.154640
   7 H :   -0.164947
Sum of atomic charges:   -0.0000000

LOEWDIN ATOMIC CHARGES
----------------------
   0 C :    0.130827
   1 S :    1.062295
   2 F :   -0.243763
   3 O :   -0.440619
   4 O :   -0.466355
   5 H :   -0.020185
   6 H :   -0.017865
   7 H :   -0.004335

  Mayer bond orders larger than 0.100000
B(  0-C ,  1-S ) :   0.9696 B(  0-C ,  5-H ) :   0.8465 B(  0-C ,  6-H ) :   0.8511
B(  0-C ,  7-H ) :   0.8469 B(  1-S ,  2-F ) :   0.7683 B(  1-S ,  3-O ) :   1.5821
B(  1-S ,  4-O ) :   1.5320 B(  1-S ,  5-H ) :   0.1090 B(  1-S ,  6-H ) :   0.1189
B(  1-S ,  7-H ) :   0.1457

Dispersion correction           -0.012766882
FINAL SINGLE POINT ENERGY      -687.934190498091

DIPOLE MOMENT
-------------
                                X             Y             Z
Electronic contribution:      1.38802      -3.27703      -4.13499
Nuclear contribution   :     -1.09446       4.91008       3.93848
                        -----------------------------------------
Total Dipole Moment    :      0.29356       1.63305      -0.19651
                        -----------------------------------------
Magnitude (a.u.)       :      1.67083
Magnitude (Debye)      :      4.24690

Rotational constants in cm-1:     0.163326     0.155515     0.146672
Rotational constants in MHz :  4896.387829  4662.220576  4397.127261

                             ****ORCA TERMINATED NORMALLY****
TOTAL RUN TIME: 0 days 0 hours 0 minutes 3 seconds 516 msec
