                         Program Version 5.0.0 -  RELEASE  -
|  1> !BLYP D3BJ RIJCOSX def2-SVPD def2/J TightSCF
|  2> *xyz 0 1
|  3> C          1.96337       -1.74915       -1.89689
|  4> C          2.73849       -2.01517       -3.09711
|  5> C          4.04974       -2.15472       -3.15204
|  6> N          4.65821       -1.98629       -4.31866
|  7> N          4.76423       -2.45444       -2.05049
|  8> H          4.28736       -2.77626       -1.21750
|  9> H          5.75082       -2.65835       -2.12599
| 10> H          2.34518       -1.69027       -3.97145
| 11> H          4.10900       -1.59268       -5.07176
| 12> H          5.64910       -2.15646       -4.42724
| 13> H          0.92556       -1.68522       -2.14942
| 14> H          2.28268       -0.82430       -1.46378
| 15> H          2.11118       -2.54207       -1.19381
| 16> *
| 17> %MaxCore 64000
| 18>
| 19> %pal nprocs 8
| 20> end
| 21>
| 22> %scf
| 23>   MaxIter 150
| 24> end
| 25>
| 26>
| 27>                          ****END OF INPUT****

CARTESIAN COORDINATES (ANGSTROEM)
---------------------------------
  C      1.963370   -1.749150   -1.896890
  C      2.738490   -2.015170   -3.097110
  C      4.049740   -2.154720   -3.152040
  N      4.658210   -1.986290   -4.318660
  N      4.764230   -2.454440   -2.050490
  H      4.287360   -2.776260   -1.217500
  H      5.750820   -2.658350   -2.125990
  H      2.345180   -1.690270   -3.971450
  H      4.109000   -1.592680   -5.071760
  H      5.649100   -2.156460   -4.427240
  H      0.925560   -1.685220   -2.149420
  H      2.282680   -0.824300   -1.463780
  H      2.111180   -2.542070   -1.193810

 Total Charge           Charge          ....    0
 Multiplicity           Mult            ....    1
 Number of Electrons    NEL             ....   40
 Basis Dimension        Dim             ....  164

ORBITAL ENERGIES
----------------

  NO   OCC          E(Eh)            E(eV)
   0   2.0000     -14.026497      -381.6804
   1   2.0000     -14.022238      -381.5645
   2   2.0000      -9.957258      -270.9508
   3   2.0000      -9.886924      -269.0369
   4   2.0000      -9.843187      -267.8467
   5   2.0000      -0.861118       -23.4322
   6   2.0000      -0.779173       -21.2024
   7   2.0000      -0.668049       -18.1785
   8   2.0000      -0.582172       -15.8417
   9   2.0000      -0.523105       -14.2344
  10   2.0000      -0.485400       -13.2084
  11   2.0000      -0.451722       -12.2920
  12   2.0000      -0.422044       -11.4844
  13   2.0000      -0.372891       -10.1469
  14   2.0000      -0.357479        -9.7275
  15   2.0000      -0.328185        -8.9304
  16   2.0000      -0.309339        -8.4176
  17   2.0000      -0.290687        -7.9100
  18   2.0000      -0.218796        -5.9537
  19   2.0000      -0.123309        -3.3554
  20   0.0000      -0.007911        -0.2153
  21   0.0000       0.021115         0.5746
  22   0.0000       0.033982         0.9247
  23   0.0000       0.046507         1.2655
  24   0.0000       0.059900         1.6300

MULLIKEN ATOMIC CHARGES
-----------------------
   0 C :    1.291724
   1 C :   -0.497426
   2 C :    0.623467
   3 N :    0.298866
   4 N :    0.237368
   5 H :   -0.134037
   6 H :   -0.352542
   7 H :   -0.456498
   8 H :   -0.077267
   9 H :   -0.290969
  10 H :   -0.222026
  11 H :   -0.243140
  12 H :   -0.177520
Sum of atomic charges:   -0.0000000

LOEWDIN ATOMIC CHARGES
----------------------
   0 C :    0.099311
   1 C :   -0.065162
   2 C :   -0.242877
   3 N :    0.197007
   4 N :    0.221807
   5 H :   -0.014589
   6 H :   -0.021286
   7 H :   -0.063678
   8 H :   -0.001865
   9 H :   -0.016686
  10 H :   -0.025034
  11 H :   -0.027123
  12 H :   -0.039824

  Mayer bond orders larger than 0.100000
B(  0-C ,  1-C ) :   1.1459 B(  0-C ,  7-H ) :   0.2563 B(  0-C , 10-H ) :   0.6071
B(  0-C , 11-H ) :   0.6414 B(  0-C , 12-H ) :   0.5814 B(  1-C ,  2-C ) :   1.5003
B(  1-C ,  3-N ) :   0.3395 B(  1-C ,  4-N ) :   0.3157 B(  1-C ,  7-H ) :   0.8552
B(  1-C , 10-H ) :   0.3645 B(  1-C , 11-H ) :   0.2096 B(  1-C , 12-H ) :   0.3874
B(  2-C ,  3-N ) :   1.0046 B(  2-C ,  4-N ) :   1.0089 B(  2-C ,  6-H ) :  -0.1841
B(  2-C ,  7-H ) :   0.2680 B(  2-C ,  9-H ) :  -0.1052 B(  3-N ,  4-N ) :   0.1042
B(  3-N ,  7-H ) :   0.1050 B(  3-N ,  8-H ) :   1.1434 B(  3-N ,  9-H ) :   1.2509
B(  4-N ,  5-H ) :   1.1014 B(  4-N ,  6-H ) :   1.3163 B(  5-H ,  6-H ) :  -0.2046
B(  8-H ,  9-H ) :  -0.1866 B( 10-H , 12-H ) :   0.1104

Dispersion correction           -0.019450190
FINAL SINGLE POINT ENERGY      -228.357260807482

DIPOLE MOMENT
-------------
                                X             Y             Z
Electronic contribution:      2.72502      -0.66709      -1.59441
Nuclear contribution   :     -1.78367       0.60166       1.44982
                        -----------------------------------------
Total Dipole Moment    :      0.94136      -0.06543      -0.14459
                        -----------------------------------------
Magnitude (a.u.)       :      0.95464
Magnitude (Debye)      :      2.42651

Rotational constants in cm-1:     0.313991     0.135452     0.097139
Rotational constants in MHz :  9413.212964  4060.745953  2912.144668

                             ****ORCA TERMINATED NORMALLY****
TOTAL RUN TIME: 0 days 0 hours 0 minutes 4 seconds 705 msec
