                         Program Version 5.0.0 -  RELEASE  -
|  1> !BLYP D3BJ RIJCOSX def2-SVPD def2/J TightSCF
|  2> *xyz 0 1
|  3> C          1.69499        1.54179       -5.57045
|  4> S          1.78029       -0.03313       -6.42874
|  5> O          2.56929        0.21366       -7.60736
|  6> F          0.41688       -0.46297       -6.61859
|  7> O          2.50513       -0.93326       -5.48257
|  8> H          1.18489        2.25500       -6.18367
|  9> H          2.68564        1.89081       -5.36624
| 10> H          1.16361        1.41804       -4.65000
| 11> *
| 12> %MaxCore 64000
| 13>
| 14> %pal nprocs 8
| 15> end
| 16>
| 17> %scf
| 18>   MaxIter 150
| 19> end
| 20>
| 21>
| 22>                          ****END OF INPUT****

CARTESIAN COORDINATES (ANGSTROEM)
---------------------------------
  C      1.694990    1.541790   -5.570450
  S      1.780290   -0.033130   -6.428740
  O      2.569290    0.213660   -7.607360
  F      0.416880   -0.462970   -6.618590
  O      2.505130   -0.933260   -5.482570
  H      1.184890    2.255000   -6.183670
  H      2.685640    1.890810   -5.366240
  H      1.163610    1.418040   -4.650000

 Total Charge           Charge          ....    0
 Multiplicity           Mult            ....    1
 Number of Electrons    NEL             ....   50
 Basis Dimension        Dim             ....  140

ORBITAL ENERGIES
----------------

  NO   OCC          E(Eh)            E(eV)
   0   2.0000     -88.390192     -2405.2194
   1   2.0000     -24.423773      -664.6046
   2   2.0000     -18.807254      -511.7714
   3   2.0000     -18.790282      -511.3096
   4   2.0000      -9.982531      -271.6385
   5   2.0000      -7.927606      -215.7211
   6   2.0000      -5.966983      -162.3699
   7   2.0000      -5.960325      -162.1887
   8   2.0000      -5.959060      -162.1543
   9   2.0000      -1.270385       -34.5689
  10   2.0000      -1.015906       -27.6442
  11   2.0000      -0.910018       -24.7629
  12   2.0000      -0.725547       -19.7431
  13   2.0000      -0.651305       -17.7229
  14   2.0000      -0.542940       -14.7742
  15   2.0000      -0.524112       -14.2618
  16   2.0000      -0.496617       -13.5136
  17   2.0000      -0.428416       -11.6578
  18   2.0000      -0.425129       -11.5684
  19   2.0000      -0.417154       -11.3513
  20   2.0000      -0.387774       -10.5519
  21   2.0000      -0.337620        -9.1871
  22   2.0000      -0.295118        -8.0306
  23   2.0000      -0.276874        -7.5341
  24   2.0000      -0.257017        -6.9938
  25   0.0000      -0.035453        -0.9647
  26   0.0000       0.003501         0.0953
  27   0.0000       0.009500         0.2585
  28   0.0000       0.030023         0.8170
  29   0.0000       0.031619         0.8604

MULLIKEN ATOMIC CHARGES
-----------------------
   0 C :    0.878910
   1 S :    1.087357
   2 O :   -0.548343
   3 F :   -0.331806
   4 O :   -0.604475
   5 H :   -0.162346
   6 H :   -0.160064
   7 H :   -0.159234
Sum of atomic charges:    0.0000000

LOEWDIN ATOMIC CHARGES
----------------------
   0 C :    0.130968
   1 S :    1.062571
   2 O :   -0.441708
   3 F :   -0.243323
   4 O :   -0.466069
   5 H :   -0.020190
   6 H :   -0.003976
   7 H :   -0.018272

  Mayer bond orders larger than 0.100000
B(  0-C ,  1-S ) :   0.9697 B(  0-C ,  5-H ) :   0.8462 B(  0-C ,  6-H ) :   0.8469
B(  0-C ,  7-H ) :   0.8514 B(  1-S ,  2-O ) :   1.5842 B(  1-S ,  3-F ) :   0.7653
B(  1-S ,  4-O ) :   1.5314 B(  1-S ,  5-H ) :   0.1086 B(  1-S ,  6-H ) :   0.1455
B(  1-S ,  7-H ) :   0.1185

Dispersion correction           -0.012769339
FINAL SINGLE POINT ENERGY      -687.933516380765

DIPOLE MOMENT
-------------
                                X             Y             Z
Electronic contribution:     -2.12674      -4.38173      -2.51683
Nuclear contribution   :      1.05593       5.58608       2.95063
                        -----------------------------------------
Total Dipole Moment    :     -1.07081       1.20435       0.43380
                        -----------------------------------------
Magnitude (a.u.)       :      1.66891
Magnitude (Debye)      :      4.24204

Rotational constants in cm-1:     0.163930     0.155251     0.146268
Rotational constants in MHz :  4914.487830  4654.318941  4385.000376

                             ****ORCA TERMINATED NORMALLY****
TOTAL RUN TIME: 0 days 0 hours 0 minutes 3 seconds 451 msec
