                         Program Version 5.0.0 -  RELEASE  -
|  1> !BLYP D3BJ RIJCOSX def2-SVPD def2/J TightSCF
|  2> *xyz 0 1
|  3> C          1.96337       -1.74915       -1.89689
|  4> N          2.73849       -2.01517       -3.09711
|  5> C          4.04974       -2.15472       -3.15204
|  6> C          4.65821       -1.98629       -4.31866
|  7> N          4.76423       -2.45444       -2.05049
|  8> H          4.28736       -2.77626       -1.21750
|  9> H          5.75082       -2.65835       -2.12599
| 10> H          2.34518       -1.69027       -3.97145
| 11> H          4.10900       -1.59268       -5.07176
| 12> H          5.64910       -2.15646       -4.42724
| 13> H          0.92556       -1.68522       -2.14942
| 14> H          2.28268       -0.82430       -1.46378
| 15> H          2.11118       -2.54207       -1.19381
| 16> *
| 17> %MaxCore 64000
| 18>
| 19> %pal nprocs 8
| 20> end
| 21>
| 22> %scf
| 23>   MaxIter 150
| 24> end
| 25>
| 26>
| 27>                          ****END OF INPUT****

CARTESIAN COORDINATES (ANGSTROEM)
---------------------------------
  C      1.963370   -1.749150   -1.896890
  N      2.738490   -2.015170   -3.097110
  C      4.049740   -2.154720   -3.152040
  C      4.658210   -1.986290   -4.318660
  N      4.764230   -2.454440   -2.050490
  H      4.287360   -2.776260   -1.217500
  H      5.750820   -2.658350   -2.125990
  H      2.345180   -1.690270   -3.971450
  H      4.109000   -1.592680   -5.071760
  H      5.649100   -2.156460   -4.427240
  H      0.925560   -1.685220   -2.149420
  H      2.282680   -0.824300   -1.463780
  H      2.111180   -2.542070   -1.193810

 Total Charge           Charge          ....    0
 Multiplicity           Mult            ....    1
 Number of Electrons    NEL             ....   40
 Basis Dimension        Dim             ....  164

ORBITAL ENERGIES
----------------

  NO   OCC          E(Eh)            E(eV)
   0   2.0000     -14.024741      -381.6326
   1   2.0000     -14.023193      -381.5905
   2   2.0000      -9.960496      -271.0389
   3   2.0000      -9.954075      -270.8641
   4   2.0000      -9.835842      -267.6469
   5   2.0000      -0.869719       -23.6663
   6   2.0000      -0.790304       -21.5053
   7   2.0000      -0.664058       -18.0699
   8   2.0000      -0.589909       -16.0522
   9   2.0000      -0.537100       -14.6152
  10   2.0000      -0.477460       -12.9923
  11   2.0000      -0.438572       -11.9341
  12   2.0000      -0.424873       -11.5614
  13   2.0000      -0.401594       -10.9279
  14   2.0000      -0.357056        -9.7160
  15   2.0000      -0.341639        -9.2965
  16   2.0000      -0.335892        -9.1401
  17   2.0000      -0.311509        -8.4766
  18   2.0000      -0.210837        -5.7372
  19   2.0000      -0.127223        -3.4619
  20   0.0000      -0.008203        -0.2232
  21   0.0000       0.025936         0.7058
  22   0.0000       0.026884         0.7316
  23   0.0000       0.044227         1.2035
  24   0.0000       0.062417         1.6984

MULLIKEN ATOMIC CHARGES
-----------------------
   0 C :    1.473072
   1 N :   -0.282183
   2 C :    0.498981
   3 C :    0.567270
   4 N :    0.357372
   5 H :   -0.242437
   6 H :   -0.202739
   7 H :   -0.254609
   8 H :   -0.396453
   9 H :   -0.586639
  10 H :   -0.488324
  11 H :   -0.182268
  12 H :   -0.261042
Sum of atomic charges:    0.0000000

LOEWDIN ATOMIC CHARGES
----------------------
   0 C :    0.208004
   1 N :   -0.024840
   2 C :   -0.256443
   3 C :    0.155691
   4 N :    0.218870
   5 H :   -0.030222
   6 H :   -0.002193
   7 H :    0.020562
   8 H :   -0.109103
   9 H :   -0.108106
  10 H :   -0.017716
  11 H :   -0.023336
  12 H :   -0.031167

  Mayer bond orders larger than 0.100000
B(  0-C ,  1-N ) :   1.0063 B(  0-C ,  7-H ) :  -0.1032 B(  0-C , 10-H ) :   0.6409
B(  0-C , 11-H ) :   0.7573 B(  0-C , 12-H ) :   0.7411 B(  1-N ,  2-C ) :   1.1412
B(  1-N ,  3-C ) :   0.2613 B(  1-N ,  4-N ) :   0.1554 B(  1-N ,  7-H ) :   1.1590
B(  1-N , 10-H ) :   0.2138 B(  1-N , 11-H ) :   0.1479 B(  1-N , 12-H ) :   0.2004
B(  2-C ,  3-C ) :   1.1839 B(  2-C ,  4-N ) :   1.0589 B(  2-C ,  7-H ) :  -0.1382
B(  2-C ,  8-H ) :   0.1493 B(  2-C ,  9-H ) :   0.1449 B(  3-C ,  4-N ) :   0.2385
B(  3-C ,  8-H ) :   0.7601 B(  3-C ,  9-H ) :   0.7046 B(  4-N ,  5-H ) :   1.0981
B(  4-N ,  6-H ) :   1.1987 B(  5-H ,  6-H ) :  -0.2087

Dispersion correction           -0.019290706
FINAL SINGLE POINT ENERGY      -228.350196924075

DIPOLE MOMENT
-------------
                                X             Y             Z
Electronic contribution:      0.87473      -0.65166      -0.34690
Nuclear contribution   :     -1.39484       0.60751       1.20240
                        -----------------------------------------
Total Dipole Moment    :     -0.52010      -0.04415       0.85550
                        -----------------------------------------
Magnitude (a.u.)       :      1.00217
Magnitude (Debye)      :      2.54730

Rotational constants in cm-1:     0.316419     0.139940     0.099730
Rotational constants in MHz :  9485.991536  4195.289338  2989.818216

                             ****ORCA TERMINATED NORMALLY****
TOTAL RUN TIME: 0 days 0 hours 0 minutes 4 seconds 690 msec
