                         Program Version 5.0.0 -  RELEASE  -
|  1> !BLYP D3BJ RIJCOSX def2-SVPD def2/J TightSCF
|  2> *xyz 0 1
|  3> C          1.69499        1.54179       -5.57045
|  4> S          1.78029       -0.03313       -6.42874
|  5> O          2.56929        0.21366       -7.60736
|  6> O          0.41688       -0.46297       -6.61859
|  7> F          2.50513       -0.93326       -5.48257
|  8> H          1.18489        2.25500       -6.18367
|  9> H          2.68564        1.89081       -5.36624
| 10> H          1.16361        1.41804       -4.65000
| 11> *
| 12> %MaxCore 64000
| 13>
| 14> %pal nprocs 8
| 15> end
| 16>
| 17> %scf
| 18>   MaxIter 150
| 19> end
| 20>
| 21>
| 22>                          ****END OF INPUT****

CARTESIAN COORDINATES (ANGSTROEM)
---------------------------------
  C      1.694990    1.541790   -5.570450
  S      1.780290   -0.033130   -6.428740
  O      2.569290    0.213660   -7.607360
  O      0.416880   -0.462970   -6.618590
  F      2.505130   -0.933260   -5.482570
  H      1.184890    2.255000   -6.183670
  H      2.685640    1.890810   -5.366240
  H      1.163610    1.418040   -4.650000

 Total Charge           Charge          ....    0
 Multiplicity           Mult            ....    1
 Number of Electrons    NEL             ....   50
 Basis Dimension        Dim             ....  140

ORBITAL ENERGIES
----------------

  NO   OCC          E(Eh)            E(eV)
   0   2.0000     -88.387510     -2405.1464
   1   2.0000     -24.397813      -663.8982
   2   2.0000     -18.807775      -511.7856
   3   2.0000     -18.806655      -511.7551
   4   2.0000      -9.981214      -271.6026
   5   2.0000      -7.924882      -215.6470
   6   2.0000      -5.963937      -162.2870
   7   2.0000      -5.957882      -162.1222
   8   2.0000      -5.956625      -162.0880
   9   2.0000      -1.227853       -33.4116
  10   2.0000      -1.026150       -27.9229
  11   2.0000      -0.936892       -25.4941
  12   2.0000      -0.722781       -19.6679
  13   2.0000      -0.630252       -17.1500
  14   2.0000      -0.526636       -14.3305
  15   2.0000      -0.494900       -13.4669
  16   2.0000      -0.489650       -13.3241
  17   2.0000      -0.427001       -11.6193
  18   2.0000      -0.426263       -11.5992
  19   2.0000      -0.414070       -11.2674
  20   2.0000      -0.394519       -10.7354
  21   2.0000      -0.344294        -9.3687
  22   2.0000      -0.297524        -8.0960
  23   2.0000      -0.296842        -8.0775
  24   2.0000      -0.276812        -7.5324
  25   0.0000      -0.031197        -0.8489
  26   0.0000       0.002289         0.0623
  27   0.0000       0.012060         0.3282
  28   0.0000       0.032324         0.8796
  29   0.0000       0.033174         0.9027

MULLIKEN ATOMIC CHARGES
-----------------------
   0 C :    0.876903
   1 S :    1.096982
   2 O :   -0.565212
   3 O :   -0.565494
   4 F :   -0.358091
   5 H :   -0.169196
   6 H :   -0.155260
   7 H :   -0.160631
Sum of atomic charges:    0.0000000

LOEWDIN ATOMIC CHARGES
----------------------
   0 C :    0.131507
   1 S :    1.059823
   2 O :   -0.442602
   3 O :   -0.441320
   4 F :   -0.264971
   5 H :   -0.006086
   6 H :   -0.017891
   7 H :   -0.018460

  Mayer bond orders larger than 0.100000
B(  0-C ,  1-S ) :   0.9678 B(  0-C ,  5-H ) :   0.8405 B(  0-C ,  6-H ) :   0.8520
B(  0-C ,  7-H ) :   0.8522 B(  1-S ,  2-O ) :   1.5799 B(  1-S ,  3-O ) :   1.5775
B(  1-S ,  4-F ) :   0.6991 B(  1-S ,  5-H ) :   0.1364 B(  1-S ,  6-H ) :   0.1209
B(  1-S ,  7-H ) :   0.1207 B(  2-O ,  3-O ) :   0.1235

Dispersion correction           -0.012768498
FINAL SINGLE POINT ENERGY      -687.956188471738

DIPOLE MOMENT
-------------
                                X             Y             Z
Electronic contribution:      1.29925      -5.16791      -0.63484
Nuclear contribution   :     -1.03036       6.05593       1.81567
                        -----------------------------------------
Total Dipole Moment    :      0.26888       0.88802       1.18083
                        -----------------------------------------
Magnitude (a.u.)       :      1.50174
Magnitude (Debye)      :      3.81713

Rotational constants in cm-1:     0.164224     0.152173     0.148737
Rotational constants in MHz :  4923.310232  4562.031098  4459.033187

                             ****ORCA TERMINATED NORMALLY****
TOTAL RUN TIME: 0 days 0 hours 0 minutes 3 seconds 484 msec
