                         Program Version 5.0.0 -  RELEASE  -
|  1> !BLYP D3BJ RIJCOSX def2-SVPD def2/J TightSCF
|  2> *xyz 0 1
|  3> C          1.96337       -1.74915       -1.89689
|  4> N          2.73849       -2.01517       -3.09711
|  5> C          4.04974       -2.15472       -3.15204
|  6> N          4.65821       -1.98629       -4.31866
|  7> C          4.76423       -2.45444       -2.05049
|  8> H          4.28736       -2.77626       -1.21750
|  9> H          5.75082       -2.65835       -2.12599
| 10> H          2.34518       -1.69027       -3.97145
| 11> H          4.10900       -1.59268       -5.07176
| 12> H          5.64910       -2.15646       -4.42724
| 13> H          0.92556       -1.68522       -2.14942
| 14> H          2.28268       -0.82430       -1.46378
| 15> H          2.11118       -2.54207       -1.19381
| 16> *
| 17> %MaxCore 64000
| 18>
| 19> %pal nprocs 8
| 20> end
| 21>
| 22> %scf
| 23>   MaxIter 150
| 24> end
| 25>
| 26>
| 27>                          ****END OF INPUT****

CARTESIAN COORDINATES (ANGSTROEM)
---------------------------------
  C      1.963370   -1.749150   -1.896890
  N      2.738490   -2.015170   -3.097110
  C      4.049740   -2.154720   -3.152040
  N      4.658210   -1.986290   -4.318660
  C      4.764230   -2.454440   -2.050490
  H      4.287360   -2.776260   -1.217500
  H      5.750820   -2.658350   -2.125990
  H      2.345180   -1.690270   -3.971450
  H      4.109000   -1.592680   -5.071760
  H      5.649100   -2.156460   -4.427240
  H      0.925560   -1.685220   -2.149420
  H      2.282680   -0.824300   -1.463780
  H      2.111180   -2.542070   -1.193810

 Total Charge           Charge          ....    0
 Multiplicity           Mult            ....    1
 Number of Electrons    NEL             ....   40
 Basis Dimension        Dim             ....  164

ORBITAL ENERGIES
----------------

  NO   OCC          E(Eh)            E(eV)
   0   2.0000     -14.028086      -381.7236
   1   2.0000     -14.025887      -381.6638
   2   2.0000      -9.961951      -271.0785
   3   2.0000      -9.947766      -270.6925
   4   2.0000      -9.837729      -267.6982
   5   2.0000      -0.875441       -23.8220
   6   2.0000      -0.793443       -21.5907
   7   2.0000      -0.641041       -17.4436
   8   2.0000      -0.618481       -16.8297
   9   2.0000      -0.506588       -13.7850
  10   2.0000      -0.489876       -13.3302
  11   2.0000      -0.468202       -12.7404
  12   2.0000      -0.402982       -10.9657
  13   2.0000      -0.395867       -10.7721
  14   2.0000      -0.366242        -9.9659
  15   2.0000      -0.335088        -9.1182
  16   2.0000      -0.323686        -8.8079
  17   2.0000      -0.316277        -8.6063
  18   2.0000      -0.207197        -5.6381
  19   2.0000      -0.131149        -3.5688
  20   0.0000      -0.009429        -0.2566
  21   0.0000       0.018038         0.4908
  22   0.0000       0.031149         0.8476
  23   0.0000       0.047281         1.2866
  24   0.0000       0.064207         1.7472

MULLIKEN ATOMIC CHARGES
-----------------------
   0 C :    1.492416
   1 N :   -0.255550
   2 C :    0.446232
   3 N :    0.363714
   4 C :    0.611914
   5 H :   -0.239703
   6 H :   -0.772665
   7 H :   -0.394789
   8 H :   -0.215234
   9 H :   -0.195194
  10 H :   -0.516845
  11 H :   -0.210638
  12 H :   -0.113657
Sum of atomic charges:   -0.0000000

LOEWDIN ATOMIC CHARGES
----------------------
   0 C :    0.215932
   1 N :   -0.028155
   2 C :   -0.262192
   3 N :    0.203447
   4 C :    0.175102
   5 H :   -0.121073
   6 H :   -0.114508
   7 H :    0.005335
   8 H :   -0.018788
   9 H :    0.004258
  10 H :   -0.019116
  11 H :   -0.017910
  12 H :   -0.022332

  Mayer bond orders larger than 0.100000
B(  0-C ,  1-N ) :   1.0099 B(  0-C ,  7-H ) :  -0.1207 B(  0-C , 10-H ) :   0.6663
B(  0-C , 11-H ) :   0.7403 B(  0-C , 12-H ) :   0.7664 B(  1-N ,  2-C ) :   1.0631
B(  1-N ,  3-N ) :   0.1581 B(  1-N ,  4-C ) :   0.3838 B(  1-N ,  7-H ) :   1.2170
B(  1-N , 10-H ) :   0.1989 B(  1-N , 11-H ) :   0.1936 B(  1-N , 12-H ) :   0.1168
B(  2-C ,  3-N ) :   1.0022 B(  2-C ,  4-C ) :   1.4911 B(  2-C ,  5-H ) :   0.2788
B(  2-C ,  6-H ) :   0.1397 B(  2-C ,  7-H ) :  -0.1555 B(  2-C ,  9-H ) :  -0.1076
B(  3-N ,  4-C ) :   0.2539 B(  3-N ,  8-H ) :   1.1348 B(  3-N ,  9-H ) :   1.2503
B(  4-C ,  5-H ) :   0.6206 B(  4-C ,  6-H ) :   0.7628 B(  8-H ,  9-H ) :  -0.1792

Dispersion correction           -0.019397833
FINAL SINGLE POINT ENERGY      -228.351206878315

DIPOLE MOMENT
-------------
                                X             Y             Z
Electronic contribution:      0.80095      -0.14510      -2.53394
Nuclear contribution   :     -1.37336       0.51269       1.66180
                        -----------------------------------------
Total Dipole Moment    :     -0.57241       0.36759      -0.87214
                        -----------------------------------------
Magnitude (a.u.)       :      1.10608
Magnitude (Debye)      :      2.81142

Rotational constants in cm-1:     0.331915     0.135033     0.098638
Rotational constants in MHz :  9950.555862  4048.179255  2957.099162

                             ****ORCA TERMINATED NORMALLY****
TOTAL RUN TIME: 0 days 0 hours 0 minutes 4 seconds 717 msec
