                         Program Version 5.0.0 -  RELEASE  -
|  1> !BLYP D3BJ RIJCOSX def2-SVPD def2/J TightSCF xyzfile
|  2>
|  3> *xyzfile 0 1 D2.xyz
|  4>
|  5> %MaxCore 64000
|  6>
|  7> %pal nprocs 4
|  8> end
|  9>
| 10> %scf
| 11>   MaxIter 150
| 12> end
| 13>
| 14>
| 15>                          ****END OF INPUT****

CARTESIAN COORDINATES (ANGSTROEM)
---------------------------------
  C      1.963365   -1.749150   -1.896887
  N      2.738490   -2.015170   -3.097113
  C      0.611877    1.657634   -4.500288
  C      1.694991    1.541794   -5.570447
  H      2.697326    1.734659   -5.183996
  H      1.506656    2.272239   -6.358076
  S      1.780287   -0.033128   -6.428739
  C      4.049736   -2.154717   -3.152044
  C      4.658206   -1.986293   -4.318655
  N      4.764231   -2.454435   -2.050491
  H      4.287363   -2.776259   -1.217496
  H      5.750825   -2.658351   -2.125988
  H      2.345176   -1.690274   -3.971447
  H      4.109004   -1.592677   -5.071760
  H      5.649095   -2.156462   -4.427237
  F      2.569287    0.213657   -7.607360
  O      0.416880   -0.462969   -6.618595
  C      2.088520   -0.300912   -1.415204
  H      2.231272   -2.451616   -1.102643
  H      0.930249   -1.977801   -2.155438
  C      0.680356    0.655418   -3.348038
  H     -0.356865    1.549231   -4.991128
  H      0.650228    2.675438   -4.096000
  C      1.968993    0.733582   -2.535654
  H      3.051356   -0.168602   -0.911868
  H      1.316501   -0.136231   -0.657252
  O      2.505129   -0.933263   -5.482570
  H      2.824195    0.624726   -3.208464
  H      2.058919    1.730331   -2.093112
  H      0.542252   -0.344731   -3.766662
  H     -0.174219    0.829692   -2.685182

 Total Charge           Charge          ....    0
 Multiplicity           Mult            ....    1
 Number of Electrons    NEL             ....  120
 Basis Dimension        Dim             ....  432

ORBITAL ENERGIES
----------------

  NO   OCC          E(Eh)            E(eV)
   0   2.0000     -88.395390     -2405.3609
   1   2.0000     -24.428776      -664.7408
   2   2.0000     -18.814200      -511.9604
   3   2.0000     -18.798449      -511.5318
   4   2.0000     -14.006471      -381.1355
   5   2.0000     -13.990309      -380.6957
   6   2.0000      -9.987232      -271.7664
   7   2.0000      -9.954166      -270.8666
   8   2.0000      -9.943888      -270.5870
   9   2.0000      -9.937682      -270.4181
  10   2.0000      -9.929187      -270.1869
  11   2.0000      -9.919582      -269.9255
  12   2.0000      -9.914198      -269.7790
  13   2.0000      -9.806950      -266.8607
  14   2.0000      -7.931878      -215.8374
  15   2.0000      -5.971107      -162.4821
  16   2.0000      -5.965060      -162.3175
  17   2.0000      -5.963026      -162.2622
  18   2.0000      -1.275613       -34.7112
  19   2.0000      -1.022934       -27.8354
  20   2.0000      -0.922947       -25.1147
  21   2.0000      -0.848510       -23.0891
  22   2.0000      -0.773218       -21.0403
  23   2.0000      -0.757881       -20.6230
  24   2.0000      -0.710895       -19.3444
  25   2.0000      -0.681525       -18.5452
  26   2.0000      -0.648092       -17.6355
  27   2.0000      -0.621454       -16.9106
  28   2.0000      -0.586083       -15.9481
  29   2.0000      -0.558190       -15.1891
  30   2.0000      -0.538435       -14.6516
  31   2.0000      -0.527616       -14.3572
  32   2.0000      -0.521460       -14.1896
  33   2.0000      -0.501042       -13.6340
  34   2.0000      -0.495830       -13.4922
  35   2.0000      -0.459779       -12.5112
  36   2.0000      -0.447502       -12.1771
  37   2.0000      -0.445727       -12.1289
  38   2.0000      -0.422990       -11.5101
  39   2.0000      -0.420633       -11.4460
  40   2.0000      -0.414325       -11.2744
  41   2.0000      -0.405773       -11.0416
  42   2.0000      -0.389157       -10.5895
  43   2.0000      -0.382887       -10.4189
  44   2.0000      -0.367882       -10.0106
  45   2.0000      -0.351046        -9.5524
  46   2.0000      -0.339401        -9.2356
  47   2.0000      -0.336938        -9.1686
  48   2.0000      -0.326106        -8.8738
  49   2.0000      -0.314507        -8.5582
  50   2.0000      -0.310490        -8.4489
  51   2.0000      -0.306339        -8.3359
  52   2.0000      -0.299204        -8.1418
  53   2.0000      -0.288648        -7.8545
  54   2.0000      -0.285325        -7.7641
  55   2.0000      -0.279127        -7.5954
  56   2.0000      -0.278404        -7.5758
  57   2.0000      -0.254741        -6.9319
  58   2.0000      -0.188702        -5.1348
  59   2.0000      -0.106497        -2.8979
  60   0.0000      -0.032851        -0.8939
  61   0.0000      -0.014332        -0.3900
  62   0.0000       0.003243         0.0882
  63   0.0000       0.008164         0.2222
  64   0.0000       0.018323         0.4986

MULLIKEN ATOMIC CHARGES
-----------------------
   0 C :    1.286919
   1 N :    0.283936
   2 C :    0.743721
   3 C :    0.407595
   4 H :   -0.024523
   5 H :   -0.260525
   6 S :    1.460874
   7 C :    0.497745
   8 C :    0.944365
   9 N :    0.470667
  10 H :   -0.151955
  11 H :   -0.292478
  12 H :   -0.741413
  13 H :   -0.466621
  14 H :   -0.846287
  15 F :   -0.418344
  16 O :   -0.630834
  17 C :    0.732270
  18 H :   -0.634901
  19 H :   -0.318594
  20 C :    0.294835
  21 H :   -0.151757
  22 H :   -0.184654
  23 C :    0.313531
  24 H :   -0.178970
  25 H :   -0.259283
  26 O :   -0.771001
  27 H :   -0.051103
  28 H :   -0.512498
  29 H :   -0.197830
  30 H :   -0.342886
Sum of atomic charges:   -0.0000000

LOEWDIN ATOMIC CHARGES
----------------------
   0 C :    0.061863
   1 N :    0.031414
   2 C :   -0.010221
   3 C :   -0.041516
   4 H :    0.018102
   5 H :    0.013205
   6 S :    1.151208
   7 C :   -0.233922
   8 C :    0.177746
   9 N :    0.215913
  10 H :   -0.035477
  11 H :   -0.006575
  12 H :   -0.077527
  13 H :   -0.172897
  14 H :   -0.108574
  15 F :   -0.224993
  16 O :   -0.423156
  17 C :   -0.005830
  18 H :    0.000234
  19 H :    0.011032
  20 C :   -0.012502
  21 H :    0.025042
  22 H :    0.034182
  23 C :   -0.017131
  24 H :    0.011923
  25 H :    0.011270
  26 O :   -0.451555
  27 H :    0.005493
  28 H :    0.019456
  29 H :    0.003912
  30 H :    0.029881

  Mayer bond orders larger than 0.100000
B(  0-C ,  1-N ) :   0.9646 B(  0-C , 12-H ) :  -0.3757 B(  0-C , 17-C ) :   1.0096
B(  0-C , 18-H ) :   0.6830 B(  0-C , 19-H ) :   0.4544 B(  0-C , 23-C ) :   0.1910
B(  0-C , 25-H ) :   0.1582 B(  1-N ,  7-C ) :   1.0855 B(  1-N ,  8-C ) :   0.2451
B(  1-N ,  9-N ) :   0.2404 B(  1-N , 12-H ) :   0.9698 B(  1-N , 18-H ) :   0.1137
B(  1-N , 19-H ) :   0.1690 B(  2-C ,  3-C ) :   1.2506 B(  2-C ,  4-H ) :   0.1345
B(  2-C ,  5-H ) :   0.2435 B(  2-C , 20-C ) :   1.2145 B(  2-C , 21-H ) :   0.5003
B(  2-C , 22-H ) :   0.6371 B(  2-C , 29-H ) :   0.1101 B(  3-C ,  4-H ) :   0.8321
B(  3-C ,  5-H ) :   0.6624 B(  3-C ,  6-S ) :   0.9752 B(  3-C , 20-C ) :   0.1032
B(  3-C , 21-H ) :   0.1445 B(  3-C , 22-H ) :   0.2115 B(  6-S , 15-F ) :   0.6735
B(  6-S , 16-O ) :   1.4921 B(  6-S , 26-O ) :   1.4026 B(  7-C ,  8-C ) :   1.1684
B(  7-C ,  9-N ) :   1.0360 B(  7-C , 11-H ) :  -0.1275 B(  7-C , 12-H ) :  -0.3888
B(  7-C , 13-H ) :   0.1649 B(  7-C , 14-H ) :   0.2959 B(  8-C ,  9-N ) :   0.3137
B(  8-C , 13-H ) :   0.4108 B(  8-C , 14-H ) :   0.4335 B(  9-N , 10-H ) :   0.9369
B(  9-N , 11-H ) :   1.2551 B(  9-N , 18-H ) :   0.1175 B( 10-H , 11-H ) :  -0.2325
B( 10-H , 13-H ) :   0.1042 B( 12-H , 13-H ) :  -0.1174 B( 12-H , 19-H ) :   0.2402
B( 12-H , 24-H ) :   0.1674 B( 12-H , 26-O ) :   0.1283 B( 12-H , 27-H ) :   0.1321
B( 12-H , 28-H ) :  -0.1393 B( 13-H , 14-H ) :  -0.2484 B( 13-H , 26-O ) :   0.2865
B( 16-O , 26-O ) :   0.1663 B( 17-C , 18-H ) :   0.1714 B( 17-C , 19-H ) :   0.1315
B( 17-C , 23-C ) :   1.2044 B( 17-C , 24-H ) :   0.6137 B( 17-C , 25-H ) :   0.7483
B( 17-C , 27-H ) :   0.1126 B( 18-H , 19-H ) :  -0.2221 B( 19-H , 23-C ) :  -0.1178
B( 19-H , 29-H ) :   0.1058 B( 20-C , 21-H ) :   0.3710 B( 20-C , 22-H ) :   0.1075
B( 20-C , 23-C ) :   1.1702 B( 20-C , 27-H ) :   0.1527 B( 20-C , 28-H ) :   0.1591
B( 20-C , 29-H ) :   0.8742 B( 20-C , 30-H ) :   0.6738 B( 21-H , 22-H ) :  -0.1464
B( 23-C , 24-H ) :   0.2938 B( 23-C , 25-H ) :   0.1571 B( 23-C , 27-H ) :   0.7966
B( 23-C , 28-H ) :   0.7204 B( 23-C , 29-H ) :   0.1314 B( 23-C , 30-H ) :   0.1565
B( 24-H , 25-H ) :  -0.1483

Dispersion correction           -0.075742194
FINAL SINGLE POINT ENERGY     -1072.162537245861

DIPOLE MOMENT
-------------
                                X             Y             Z
Electronic contribution:     -0.88501      -0.86167     -22.48333
Nuclear contribution   :      0.43347       2.59110      22.83150
                        -----------------------------------------
Total Dipole Moment    :     -0.45155       1.72943       0.34817
                        -----------------------------------------
Magnitude (a.u.)       :      1.82100
Magnitude (Debye)      :      4.62862

Rotational constants in cm-1:     0.029257     0.014415     0.010996
Rotational constants in MHz :   877.098782   432.159206   329.643335

                             ****ORCA TERMINATED NORMALLY****
TOTAL RUN TIME: 0 days 0 hours 0 minutes 43 seconds 570 msec
