                         Program Version 5.0.0 -  RELEASE  -
|  1> !BLYP D3BJ RIJCOSX def2-SVPD def2/J TightSCF xyzfile
|  2>
|  3> *xyzfile 0 1 D8.xyz
|  4>
|  5> %MaxCore 64000
|  6>
|  7> %pal nprocs 4
|  8> end
|  9>
| 10> %scf
| 11>   MaxIter 150
| 12> end
| 13>
| 14>
| 15>                          ****END OF INPUT****

CARTESIAN COORDINATES (ANGSTROEM)
---------------------------------
  C      1.963365   -1.749150   -1.896887
  N      2.738490   -2.015170   -3.097113
  C      0.611877    1.657634   -4.500288
  C      1.694991    1.541794   -5.570447
  H      2.697326    1.734659   -5.183996
  H      1.506656    2.272239   -6.358076
  S      1.780287   -0.033128   -6.428739
  C      4.049736   -2.154717   -3.152044
  C      4.658206   -1.986293   -4.318655
  N      4.764231   -2.454435   -2.050491
  H      4.287363   -2.776259   -1.217496
  H      5.750825   -2.658351   -2.125988
  H      2.345176   -1.690274   -3.971447
  H      4.109004   -1.592677   -5.071760
  H      5.649095   -2.156462   -4.427237
  O      2.569287    0.213657   -7.607360
  O      0.416880   -0.462969   -6.618595
  C      2.088520   -0.300912   -1.415204
  H      2.231272   -2.451616   -1.102643
  H      0.930249   -1.977801   -2.155438
  C      0.680356    0.655418   -3.348038
  H     -0.356865    1.549231   -4.991128
  H      0.650228    2.675438   -4.096000
  C      1.968993    0.733582   -2.535654
  H      3.051356   -0.168602   -0.911868
  H      1.316501   -0.136231   -0.657252
  F      2.505129   -0.933263   -5.482570
  H      2.824195    0.624726   -3.208464
  H      2.058919    1.730331   -2.093112
  H      0.542252   -0.344731   -3.766662
  H     -0.174219    0.829692   -2.685182

 Total Charge           Charge          ....    0
 Multiplicity           Mult            ....    1
 Number of Electrons    NEL             ....  120
 Basis Dimension        Dim             ....  432

ORBITAL ENERGIES
----------------

  NO   OCC          E(Eh)            E(eV)
   0   2.0000     -88.384928     -2405.0762
   1   2.0000     -24.404050      -664.0680
   2   2.0000     -18.808065      -511.7935
   3   2.0000     -18.806294      -511.7453
   4   2.0000     -14.025449      -381.6519
   5   2.0000     -14.018464      -381.4618
   6   2.0000      -9.981470      -271.6096
   7   2.0000      -9.961312      -271.0611
   8   2.0000      -9.961263      -271.0597
   9   2.0000      -9.951870      -270.8042
  10   2.0000      -9.939025      -270.4546
  11   2.0000      -9.932179      -270.2683
  12   2.0000      -9.927681      -270.1459
  13   2.0000      -9.833900      -267.5940
  14   2.0000      -7.921549      -215.5563
  15   2.0000      -5.960921      -162.2049
  16   2.0000      -5.954580      -162.0323
  17   2.0000      -5.952856      -161.9854
  18   2.0000      -1.237421       -33.6719
  19   2.0000      -1.026977       -27.9455
  20   2.0000      -0.936317       -25.4785
  21   2.0000      -0.872291       -23.7363
  22   2.0000      -0.794412       -21.6170
  23   2.0000      -0.759054       -20.6549
  24   2.0000      -0.717654       -19.5284
  25   2.0000      -0.687385       -18.7047
  26   2.0000      -0.646303       -17.5868
  27   2.0000      -0.636483       -17.3196
  28   2.0000      -0.598997       -16.2995
  29   2.0000      -0.567583       -15.4447
  30   2.0000      -0.533630       -14.5208
  31   2.0000      -0.530730       -14.4419
  32   2.0000      -0.508712       -13.8427
  33   2.0000      -0.504317       -13.7232
  34   2.0000      -0.490228       -13.3398
  35   2.0000      -0.475798       -12.9471
  36   2.0000      -0.448542       -12.2054
  37   2.0000      -0.444867       -12.1054
  38   2.0000      -0.434593       -11.8259
  39   2.0000      -0.431159       -11.7324
  40   2.0000      -0.419511       -11.4155
  41   2.0000      -0.409120       -11.1327
  42   2.0000      -0.395913       -10.7733
  43   2.0000      -0.388472       -10.5709
  44   2.0000      -0.377496       -10.2722
  45   2.0000      -0.356744        -9.7075
  46   2.0000      -0.352200        -9.5839
  47   2.0000      -0.347914        -9.4672
  48   2.0000      -0.338210        -9.2032
  49   2.0000      -0.330120        -8.9830
  50   2.0000      -0.324363        -8.8264
  51   2.0000      -0.316727        -8.6186
  52   2.0000      -0.304041        -8.2734
  53   2.0000      -0.301446        -8.2028
  54   2.0000      -0.293874        -7.9967
  55   2.0000      -0.291218        -7.9244
  56   2.0000      -0.287401        -7.8206
  57   2.0000      -0.276564        -7.5257
  58   2.0000      -0.210484        -5.7276
  59   2.0000      -0.129796        -3.5319
  60   0.0000      -0.023724        -0.6456
  61   0.0000      -0.010074        -0.2741
  62   0.0000      -0.002902        -0.0790
  63   0.0000       0.005097         0.1387
  64   0.0000       0.010509         0.2860

MULLIKEN ATOMIC CHARGES
-----------------------
   0 C :    1.291341
   1 N :    0.274224
   2 C :    0.809766
   3 C :    0.417553
   4 H :   -0.015902
   5 H :   -0.341258
   6 S :    1.379180
   7 C :    0.581583
   8 C :    0.970991
   9 N :    0.464102
  10 H :   -0.133268
  11 H :   -0.289280
  12 H :   -0.729609
  13 H :   -0.550802
  14 H :   -0.804443
  15 O :   -0.596046
  16 O :   -0.653199
  17 C :    0.730557
  18 H :   -0.629428
  19 H :   -0.315198
  20 C :    0.290932
  21 H :   -0.162065
  22 H :   -0.181300
  23 C :    0.287990
  24 H :   -0.177140
  25 H :   -0.266683
  26 F :   -0.555992
  27 H :   -0.044328
  28 H :   -0.495413
  29 H :   -0.251943
  30 H :   -0.304922
Sum of atomic charges:   -0.0000000

LOEWDIN ATOMIC CHARGES
----------------------
   0 C :    0.063644
   1 N :    0.025729
   2 C :   -0.020606
   3 C :   -0.034765
   4 H :    0.016273
   5 H :    0.027012
   6 S :    1.100283
   7 C :   -0.232258
   8 C :    0.182124
   9 N :    0.222845
  10 H :   -0.030474
  11 H :   -0.001442
  12 H :   -0.051775
  13 H :   -0.147977
  14 H :   -0.099737
  15 O :   -0.421367
  16 O :   -0.426838
  17 C :   -0.004313
  18 H :    0.003793
  19 H :    0.013175
  20 C :   -0.016725
  21 H :    0.025105
  22 H :    0.031416
  23 C :   -0.019277
  24 H :    0.013316
  25 H :    0.014559
  26 F :   -0.287906
  27 H :    0.002555
  28 H :    0.022988
  29 H :   -0.000752
  30 H :    0.031394

  Mayer bond orders larger than 0.100000
B(  0-C ,  1-N ) :   0.9639 B(  0-C , 12-H ) :  -0.3638 B(  0-C , 17-C ) :   1.0081
B(  0-C , 18-H ) :   0.6798 B(  0-C , 19-H ) :   0.4617 B(  0-C , 23-C ) :   0.1878
B(  0-C , 25-H ) :   0.1460 B(  1-N ,  7-C ) :   1.0977 B(  1-N ,  8-C ) :   0.2516
B(  1-N ,  9-N ) :   0.2345 B(  1-N , 12-H ) :   0.9847 B(  1-N , 18-H ) :   0.1170
B(  1-N , 19-H ) :   0.1822 B(  2-C ,  3-C ) :   1.2053 B(  2-C ,  4-H ) :   0.1473
B(  2-C ,  5-H ) :   0.2136 B(  2-C , 20-C ) :   1.2152 B(  2-C , 21-H ) :   0.4945
B(  2-C , 22-H ) :   0.6156 B(  2-C , 29-H ) :   0.1193 B(  3-C ,  4-H ) :   0.8439
B(  3-C ,  5-H ) :   0.6517 B(  3-C ,  6-S ) :   0.9764 B(  3-C , 20-C ) :   0.1272
B(  3-C , 21-H ) :   0.1607 B(  3-C , 22-H ) :   0.1956 B(  5-H ,  6-S ) :   0.1325
B(  6-S , 15-O ) :   1.5690 B(  6-S , 16-O ) :   1.4657 B(  6-S , 26-F ) :   0.6682
B(  7-C ,  8-C ) :   1.1555 B(  7-C ,  9-N ) :   1.0101 B(  7-C , 11-H ) :  -0.1466
B(  7-C , 12-H ) :  -0.3796 B(  7-C , 13-H ) :   0.1485 B(  7-C , 14-H ) :   0.3459
B(  8-C ,  9-N ) :   0.3350 B(  8-C , 13-H ) :   0.3042 B(  8-C , 14-H ) :   0.4283
B(  9-N , 10-H ) :   0.9320 B(  9-N , 11-H ) :   1.2559 B(  9-N , 18-H ) :   0.1142
B( 10-H , 11-H ) :  -0.2349 B( 12-H , 13-H ) :  -0.1225 B( 12-H , 19-H ) :   0.2281
B( 12-H , 24-H ) :   0.1404 B( 12-H , 27-H ) :   0.1085 B( 12-H , 28-H ) :  -0.1169
B( 13-H , 14-H ) :  -0.2951 B( 13-H , 26-F ) :   0.3869 B( 15-O , 16-O ) :   0.1128
B( 16-O , 26-F ) :   0.1125 B( 17-C , 18-H ) :   0.1730 B( 17-C , 19-H ) :   0.1263
B( 17-C , 23-C ) :   1.1904 B( 17-C , 24-H ) :   0.6219 B( 17-C , 25-H ) :   0.7595
B( 17-C , 27-H ) :   0.1255 B( 18-H , 19-H ) :  -0.2265 B( 19-H , 23-C ) :  -0.1096
B( 19-H , 29-H ) :   0.1038 B( 20-C , 21-H ) :   0.3740 B( 20-C , 22-H ) :   0.1093
B( 20-C , 23-C ) :   1.1847 B( 20-C , 27-H ) :   0.1376 B( 20-C , 28-H ) :   0.1629
B( 20-C , 29-H ) :   0.8618 B( 20-C , 30-H ) :   0.6756 B( 21-H , 22-H ) :  -0.1471
B( 23-C , 24-H ) :   0.2930 B( 23-C , 25-H ) :   0.1589 B( 23-C , 27-H ) :   0.7962
B( 23-C , 28-H ) :   0.7443 B( 23-C , 29-H ) :   0.1217 B( 23-C , 30-H ) :   0.1723
B( 24-H , 25-H ) :  -0.1472

Dispersion correction           -0.074788616
FINAL SINGLE POINT ENERGY     -1072.179672587552

DIPOLE MOMENT
-------------
                                X             Y             Z
Electronic contribution:     -0.86312      -2.95574     -18.38400
Nuclear contribution   :      0.50676       3.90127      20.40426
                        -----------------------------------------
Total Dipole Moment    :     -0.35636       0.94553       2.02026
                        -----------------------------------------
Magnitude (a.u.)       :      2.25887
Magnitude (Debye)      :      5.74158

Rotational constants in cm-1:     0.029548     0.014706     0.011197
Rotational constants in MHz :   885.834387   440.871746   335.667619

                             ****ORCA TERMINATED NORMALLY****
TOTAL RUN TIME: 0 days 0 hours 0 minutes 39 seconds 53 msec
