                         Program Version 5.0.0 -  RELEASE  -
|  1> !B3LYP D3BJ RIJCOSX def2-SVP def2/J TightSCF
|  2>
|  3> *xyz -1 1
|  4> C          2.95263        1.86308       -3.57485
|  5> C          4.12921        0.89839       -3.41895
|  6> H          3.73369       -0.10060       -3.23763
|  7> H          4.71910        0.86256       -4.33901
|  8> C          5.01734        1.31521       -2.22130
|  9> O          4.73706        0.85411       -1.12283
| 10> O          5.92815        2.16811       -2.49136
| 11> H          2.35067        1.56005       -4.40594
| 12> H          3.32277        2.85258       -3.74453
| 13> H          2.36134        1.85149       -2.68315
| 14> *
| 15> %MaxCore 64000
| 16>
| 17> %pal nprocs 4
| 18> end
| 19>
| 20> %scf
| 21>   MaxIter 150
| 22> end
| 23>
| 24>
| 25>                          ****END OF INPUT****

CARTESIAN COORDINATES (ANGSTROEM)
---------------------------------
  C      2.952630    1.863080   -3.574850
  C      4.129210    0.898390   -3.418950
  H      3.733690   -0.100600   -3.237630
  H      4.719100    0.862560   -4.339010
  C      5.017340    1.315210   -2.221300
  O      4.737060    0.854110   -1.122830
  O      5.928150    2.168110   -2.491360
  H      2.350670    1.560050   -4.405940
  H      3.322770    2.852580   -3.744530
  H      2.361340    1.851490   -2.683150

 Total Charge           Charge          ....   -1
 Multiplicity           Mult            ....    1
 Number of Electrons    NEL             ....   40
 Basis Dimension        Dim             ....   95

ORBITAL ENERGIES
----------------

  NO   OCC          E(Eh)            E(eV)
   0   2.0000     -18.837164      -512.5853
   1   2.0000     -18.824932      -512.2524
   2   2.0000     -10.032458      -272.9970
   3   2.0000     -10.012610      -272.4570
   4   2.0000      -9.986766      -271.7537
   5   2.0000      -0.777504       -21.1570
   6   2.0000      -0.679931       -18.5019
   7   2.0000      -0.582618       -15.8538
   8   2.0000      -0.446864       -12.1598
   9   2.0000      -0.297484        -8.0950
  10   2.0000      -0.275993        -7.5101
  11   2.0000      -0.233849        -6.3633
  12   2.0000      -0.208620        -5.6768
  13   2.0000      -0.187658        -5.1064
  14   2.0000      -0.184199        -5.0123
  15   2.0000      -0.149371        -4.0646
  16   2.0000      -0.138711        -3.7745
  17   2.0000      -0.010733        -0.2921
  18   2.0000      -0.005219        -0.1420
  19   2.0000       0.009622         0.2618
  20   0.0000       0.217277         5.9124
  21   0.0000       0.266920         7.2633
  22   0.0000       0.280006         7.6193
  23   0.0000       0.282407         7.6847
  24   0.0000       0.302356         8.2275

MULLIKEN ATOMIC CHARGES
-----------------------
   0 C :    0.041899
   1 C :    0.056431
   2 H :   -0.078332
   3 H :   -0.069299
   4 C :    0.014472
   5 O :   -0.392139
   6 O :   -0.468562
   7 H :   -0.056781
   8 H :   -0.023262
   9 H :   -0.024428
Sum of atomic charges:   -1.0000000

LOEWDIN ATOMIC CHARGES
----------------------
   0 C :   -0.051668
   1 C :   -0.084863
   2 H :   -0.013148
   3 H :   -0.009311
   4 C :   -0.058551
   5 O :   -0.358217
   6 O :   -0.426377
   7 H :   -0.010202
   8 H :    0.006035
   9 H :    0.006301

  Mayer bond orders larger than 0.100000
B(  0-C ,  1-C ) :   1.1172 B(  0-C ,  7-H ) :   0.9633 B(  0-C ,  8-H ) :   0.9635
B(  0-C ,  9-H ) :   0.9650 B(  1-C ,  2-H ) :   0.9205 B(  1-C ,  3-H ) :   0.9264
B(  1-C ,  4-C ) :   0.9118 B(  4-C ,  5-O ) :   1.8917 B(  4-C ,  6-O ) :   1.8089
B(  5-O ,  6-O ) :   0.1216

Dispersion correction           -0.010997444
FINAL SINGLE POINT ENERGY      -267.477583327722

DIPOLE MOMENT
-------------
                                X             Y             Z
Electronic contribution:      4.57816      -0.11445       4.08041
Nuclear contribution   :     -5.85873      -0.10793      -5.24103
                        -----------------------------------------
Total Dipole Moment    :     -1.28057      -0.22238      -1.16062
                        -----------------------------------------
Magnitude (a.u.)       :      1.74251
Magnitude (Debye)      :      4.42911

Rotational constants in cm-1:     0.292505     0.135951     0.110253
Rotational constants in MHz :  8769.065873  4075.717001  3305.311891

                             ****ORCA TERMINATED NORMALLY****
TOTAL RUN TIME: 0 days 0 hours 0 minutes 10 seconds 827 msec
