                         Program Version 5.0.0 -  RELEASE  -
|  1> !B3LYP D3BJ RIJCOSX def2-SVP def2/J TightSCF
|  2>
|  3> *xyz 1 1
|  4> C          3.34350        3.35457       -3.59200
|  5> C          2.95263        1.86308       -3.57485
|  6> C          4.25587        3.70385       -4.72605
|  7> N          3.73403        4.29378       -5.80077
|  8> N          5.51504        3.40725       -4.63718
|  9> H          6.14919        3.60120       -5.39905
| 10> H          5.81358        2.89950       -3.80879
| 11> H          2.74138        4.51311       -5.82470
| 12> H          4.28755        4.52126       -6.61434
| 13> H          3.86125        3.59725       -2.66298
| 14> H          2.44649        3.97346       -3.65656
| 15> H          2.44395        1.61721       -4.48352
| 16> H          2.30781        1.67290       -2.74242
| 17> H          3.83491        1.26414       -3.48670
| 18> *
| 19> %MaxCore 64000
| 20>
| 21> %pal nprocs 4
| 22> end
| 23>
| 24> %scf
| 25>   MaxIter 150
| 26> end
| 27>
| 28>
| 29>                          ****END OF INPUT****

CARTESIAN COORDINATES (ANGSTROEM)
---------------------------------
  C      3.343500    3.354570   -3.592000
  C      2.952630    1.863080   -3.574850
  C      4.255870    3.703850   -4.726050
  N      3.734030    4.293780   -5.800770
  N      5.515040    3.407250   -4.637180
  H      6.149190    3.601200   -5.399050
  H      5.813580    2.899500   -3.808790
  H      2.741380    4.513110   -5.824700
  H      4.287550    4.521260   -6.614340
  H      3.861250    3.597250   -2.662980
  H      2.446490    3.973460   -3.656560
  H      2.443950    1.617210   -4.483520
  H      2.307810    1.672900   -2.742420
  H      3.834910    1.264140   -3.486700

 Total Charge           Charge          ....    1
 Multiplicity           Mult            ....    1
 Number of Electrons    NEL             ....   40
 Basis Dimension        Dim             ....  115

ORBITAL ENERGIES
----------------

  NO   OCC          E(Eh)            E(eV)
   0   2.0000     -14.577637      -396.6777
   1   2.0000     -14.572572      -396.5399
   2   2.0000     -10.502434      -285.7858
   3   2.0000     -10.380249      -282.4609
   4   2.0000     -10.340045      -281.3669
   5   2.0000      -1.194590       -32.5064
   6   2.0000      -1.099817       -29.9276
   7   2.0000      -0.960241       -26.1295
   8   2.0000      -0.854392       -23.2492
   9   2.0000      -0.811952       -22.0943
  10   2.0000      -0.777679       -21.1617
  11   2.0000      -0.747661       -20.3449
  12   2.0000      -0.703249       -19.1364
  13   2.0000      -0.646987       -17.6054
  14   2.0000      -0.622733       -16.9454
  15   2.0000      -0.611848       -16.6492
  16   2.0000      -0.544046       -14.8043
  17   2.0000      -0.535629       -14.5752
  18   2.0000      -0.527852       -14.3636
  19   2.0000      -0.491533       -13.3753
  20   0.0000      -0.202617        -5.5135
  21   0.0000      -0.146251        -3.9797
  22   0.0000      -0.100533        -2.7356
  23   0.0000      -0.098723        -2.6864
  24   0.0000      -0.072609        -1.9758

MULLIKEN ATOMIC CHARGES
-----------------------
   0 C :    0.008442
   1 C :    0.045994
   2 C :   -0.097117
   3 N :    0.017745
   4 N :    0.071190
   5 H :    0.170088
   6 H :    0.180813
   7 H :    0.180771
   8 H :    0.165109
   9 H :    0.067821
  10 H :    0.050600
  11 H :    0.038054
  12 H :    0.071913
  13 H :    0.028578
Sum of atomic charges:    1.0000000

LOEWDIN ATOMIC CHARGES
----------------------
   0 C :   -0.026441
   1 C :   -0.013487
   2 C :    0.146284
   3 N :    0.091484
   4 N :    0.115008
   5 H :    0.113595
   6 H :    0.123845
   7 H :    0.121017
   8 H :    0.108429
   9 H :    0.056061
  10 H :    0.050841
  11 H :    0.034336
  12 H :    0.050798
  13 H :    0.028231

  Mayer bond orders larger than 0.100000
B(  0-C ,  1-C ) :   1.0798 B(  0-C ,  2-C ) :   1.0317 B(  0-C ,  9-H ) :   0.9204
B(  0-C , 10-H ) :   0.9210 B(  1-C , 11-H ) :   0.9684 B(  1-C , 12-H ) :   0.9622
B(  1-C , 13-H ) :   0.9709 B(  2-C ,  3-N ) :   1.5000 B(  2-C ,  4-N ) :   1.5412
B(  3-N ,  7-H ) :   0.9207 B(  3-N ,  8-H ) :   0.9312 B(  4-N ,  5-H ) :   0.9262
B(  4-N ,  6-H ) :   0.9148

Dispersion correction           -0.016658870
FINAL SINGLE POINT ENERGY      -228.735429841853

DIPOLE MOMENT
-------------
                                X             Y             Z
Electronic contribution:      2.40843       2.59405      -2.32584
Nuclear contribution   :     -1.74195      -2.09431       1.58516
                        -----------------------------------------
Total Dipole Moment    :      0.66649       0.49975      -0.74068
                        -----------------------------------------
Magnitude (a.u.)       :      1.11470
Magnitude (Debye)      :      2.83334

Rotational constants in cm-1:     0.258965     0.126500     0.098780
Rotational constants in MHz :  7763.584551  3792.383135  2961.336502

                             ****ORCA TERMINATED NORMALLY****
TOTAL RUN TIME: 0 days 0 hours 0 minutes 13 seconds 343 msec
