                         Program Version 5.0.0 -  RELEASE  -
|  1> !B3LYP D3BJ RIJCOSX def2-TZVP def2/J TightSCF xyzfile
|  2>
|  3> *xyzfile 0 1 B.xyz
|  4>
|  5> %MaxCore 64000
|  6>
|  7> %pal nprocs 18
|  8> end
|  9>
| 10> %scf
| 11>   MaxIter 150
| 12> end
| 13>
| 14>
| 15>                          ****END OF INPUT****

CARTESIAN COORDINATES (ANGSTROEM)
---------------------------------
  C      3.343500    3.354571   -3.591998
  C      2.952633    1.863077   -3.574849
  C      4.129209    0.898394   -3.418950
  H      3.733687   -0.100605   -3.237633
  H      4.719095    0.862556   -4.339005
  C      5.017344    1.315212   -2.221305
  C      4.255868    3.703851   -4.726054
  N      3.734032    4.293783   -5.800770
  N      5.515039    3.407255   -4.637185
  H      6.149187    3.601203   -5.399053
  H      5.813584    2.899504   -3.808785
  H      2.741380    4.513109   -5.824701
  H      4.287548    4.521260   -6.614341
  H      2.278938    1.735250   -2.725496
  H      2.377466    1.625787   -4.475869
  O      4.737055    0.854112   -1.122825
  O      5.928146    2.168108   -2.491365
  H      3.861246    3.597252   -2.662979
  H      2.446493    3.973461   -3.656556

 Total Charge           Charge          ....    0
 Multiplicity           Mult            ....    1
 Number of Electrons    NEL             ....   70
 Basis Dimension        Dim             ....  339

ORBITAL ENERGIES
----------------

  NO   OCC          E(Eh)            E(eV)
   0   2.0000     -19.030336      -517.8418
   1   2.0000     -19.016846      -517.4747
   2   2.0000     -14.411781      -392.1645
   3   2.0000     -14.372022      -391.0826
   4   2.0000     -10.328166      -281.0437
   5   2.0000     -10.212104      -277.8855
   6   2.0000     -10.211615      -277.8722
   7   2.0000     -10.186723      -277.1948
   8   2.0000     -10.145314      -276.0680
   9   2.0000      -1.043583       -28.3973
  10   2.0000      -0.989258       -26.9191
  11   2.0000      -0.949397       -25.8344
  12   2.0000      -0.901393       -24.5282
  13   2.0000      -0.821336       -22.3497
  14   2.0000      -0.736169       -20.0322
  15   2.0000      -0.676106       -18.3978
  16   2.0000      -0.630546       -17.1580
  17   2.0000      -0.618791       -16.8382
  18   2.0000      -0.586342       -15.9552
  19   2.0000      -0.543523       -14.7900
  20   2.0000      -0.499166       -13.5830
  21   2.0000      -0.481903       -13.1132
  22   2.0000      -0.461416       -12.5558
  23   2.0000      -0.446710       -12.1556
  24   2.0000      -0.422794       -11.5048
  25   2.0000      -0.396535       -10.7903
  26   2.0000      -0.376984       -10.2583
  27   2.0000      -0.370234       -10.0746
  28   2.0000      -0.365750        -9.9526
  29   2.0000      -0.338435        -9.2093
  30   2.0000      -0.329519        -8.9667
  31   2.0000      -0.325954        -8.8697
  32   2.0000      -0.217199        -5.9103
  33   2.0000      -0.211312        -5.7501
  34   2.0000      -0.189501        -5.1566
  35   0.0000      -0.050283        -1.3683
  36   0.0000      -0.030262        -0.8235
  37   0.0000       0.009575         0.2606
  38   0.0000       0.033246         0.9047
  39   0.0000       0.052535         1.4296

MULLIKEN ATOMIC CHARGES
-----------------------
   0 C :   -0.217585
   1 C :   -0.178386
   2 C :   -0.200172
   3 H :    0.091859
   4 H :    0.070639
   5 C :    0.270485
   6 C :    0.274226
   7 N :   -0.375762
   8 N :   -0.297134
   9 H :    0.214324
  10 H :    0.305075
  11 H :    0.261151
  12 H :    0.241902
  13 H :    0.114839
  14 H :    0.079603
  15 O :   -0.401364
  16 O :   -0.530967
  17 H :    0.180008
  18 H :    0.097260
Sum of atomic charges:    0.0000000

LOEWDIN ATOMIC CHARGES
----------------------
   0 C :   -0.199994
   1 C :   -0.244701
   2 C :   -0.247724
   3 H :    0.140267
   4 H :    0.122913
   5 C :   -0.658594
   6 C :   -0.302844
   7 N :    0.055063
   8 N :    0.134798
   9 H :    0.173937
  10 H :    0.139017
  11 H :    0.190518
  12 H :    0.177121
  13 H :    0.149871
  14 H :    0.128540
  15 O :    0.009453
  16 O :   -0.081688
  17 H :    0.172341
  18 H :    0.141706

  Mayer bond orders larger than 0.100000
B(  0-C ,  1-C ) :   0.9471 B(  0-C ,  6-C ) :   0.9779 B(  0-C , 17-H ) :   0.9413
B(  0-C , 18-H ) :   0.9635 B(  1-C ,  2-C ) :   1.0009 B(  1-C , 13-H ) :   0.9511
B(  1-C , 14-H ) :   0.9573 B(  2-C ,  3-H ) :   0.9580 B(  2-C ,  4-H ) :   0.9460
B(  2-C ,  5-C ) :   0.9319 B(  5-C , 15-O ) :   1.9893 B(  5-C , 16-O ) :   1.4973
B(  6-C ,  7-N ) :   1.3286 B(  6-C ,  8-N ) :   1.6135 B(  7-N , 11-H ) :   0.9011
B(  7-N , 12-H ) :   0.9066 B(  8-N ,  9-H ) :   0.9093 B(  8-N , 10-H ) :   0.6882
B( 10-H , 16-O ) :   0.2934

Dispersion correction           -0.031225525
FINAL SINGLE POINT ENERGY      -456.468196334759

DIPOLE MOMENT
-------------
                                X             Y             Z
Electronic contribution:      3.92077       0.01297       2.65209
Nuclear contribution   :     -5.42217       2.65262      -7.07590
                        -----------------------------------------
Total Dipole Moment    :     -1.50140       2.66559      -4.42382
                        -----------------------------------------
Magnitude (a.u.)       :      5.37864
Magnitude (Debye)      :     13.67141

Rotational constants in cm-1:     0.107541     0.035862     0.030371
Rotational constants in MHz :  3223.996852  1075.120464   910.508313

                             ****ORCA TERMINATED NORMALLY****
TOTAL RUN TIME: 0 days 0 hours 0 minutes 31 seconds 588 msec
