                         Program Version 5.0.0 -  RELEASE  -
|  1> !B3LYP D3BJ RIJCOSX def2-SVP def2/J TightSCF
|  2>
|  3> *xyz 0 1
|  4> C          2.95263        1.86308       -3.57485
|  5> C          4.12921        0.89839       -3.41895
|  6> H          3.73369       -0.10060       -3.23763
|  7> H          4.71910        0.86256       -4.33901
|  8> C          5.01734        1.31521       -2.22130
|  9> F          4.73706        0.85411       -1.12283
| 10> O          5.92815        2.16811       -2.49136
| 11> H          2.35067        1.56005       -4.40594
| 12> H          3.32277        2.85258       -3.74453
| 13> H          2.36134        1.85149       -2.68315
| 14> *
| 15> %MaxCore 64000
| 16>
| 17> %pal nprocs 4
| 18> end
| 19>
| 20> %scf
| 21>   MaxIter 150
| 22> end
| 23>
| 24>
| 25>                          ****END OF INPUT****

CARTESIAN COORDINATES (ANGSTROEM)
---------------------------------
  C      2.952630    1.863080   -3.574850
  C      4.129210    0.898390   -3.418950
  H      3.733690   -0.100600   -3.237630
  H      4.719100    0.862560   -4.339010
  C      5.017340    1.315210   -2.221300
  F      4.737060    0.854110   -1.122830
  O      5.928150    2.168110   -2.491360
  H      2.350670    1.560050   -4.405940
  H      3.322770    2.852580   -3.744530
  H      2.361340    1.851490   -2.683150

 Total Charge           Charge          ....    0
 Multiplicity           Mult            ....    1
 Number of Electrons    NEL             ....   40
 Basis Dimension        Dim             ....   95

ORBITAL ENERGIES
----------------

  NO   OCC          E(Eh)            E(eV)
   0   2.0000     -24.763933      -673.8609
   1   2.0000     -19.127408      -520.4832
   2   2.0000     -10.354263      -281.7538
   3   2.0000     -10.207931      -277.7719
   4   2.0000     -10.190326      -277.2929
   5   2.0000      -1.319294       -35.8998
   6   2.0000      -0.999276       -27.1917
   7   2.0000      -0.788957       -21.4686
   8   2.0000      -0.680899       -18.5282
   9   2.0000      -0.638532       -17.3753
  10   2.0000      -0.555519       -15.1164
  11   2.0000      -0.540771       -14.7151
  12   2.0000      -0.495427       -13.4813
  13   2.0000      -0.460079       -12.5194
  14   2.0000      -0.428143       -11.6504
  15   2.0000      -0.395476       -10.7615
  16   2.0000      -0.372841       -10.1455
  17   2.0000      -0.368590       -10.0298
  18   2.0000      -0.334772        -9.1096
  19   2.0000      -0.275011        -7.4834
  20   0.0000      -0.021006        -0.5716
  21   0.0000       0.061049         1.6612
  22   0.0000       0.105265         2.8644
  23   0.0000       0.109668         2.9842
  24   0.0000       0.133364         3.6290

MULLIKEN ATOMIC CHARGES
-----------------------
   0 C :    0.016967
   1 C :   -0.023683
   2 H :    0.008272
   3 H :    0.040286
   4 C :    0.208407
   5 F :   -0.032480
   6 O :   -0.279891
   7 H :    0.020800
   8 H :    0.029273
   9 H :    0.012048
Sum of atomic charges:   -0.0000000

LOEWDIN ATOMIC CHARGES
----------------------
   0 C :   -0.032812
   1 C :   -0.060605
   2 H :    0.022614
   3 H :    0.041284
   4 C :    0.090034
   5 F :    0.083430
   6 O :   -0.218607
   7 H :    0.026485
   8 H :    0.026962
   9 H :    0.021215

  Mayer bond orders larger than 0.100000
B(  0-C ,  1-C ) :   1.0955 B(  0-C ,  7-H ) :   0.9681 B(  0-C ,  8-H ) :   0.9719
B(  0-C ,  9-H ) :   0.9728 B(  1-C ,  2-H ) :   0.9303 B(  1-C ,  3-H ) :   0.9429
B(  1-C ,  4-C ) :   0.9986 B(  4-C ,  5-F ) :   1.2374 B(  4-C ,  6-O ) :   2.0462

Dispersion correction           -0.010391843
FINAL SINGLE POINT ENERGY      -292.022194331875

DIPOLE MOMENT
-------------
                                X             Y             Z
Electronic contribution:      5.13307      -1.12955       6.58187
Nuclear contribution   :     -6.06116       0.51860      -6.80802
                        -----------------------------------------
Total Dipole Moment    :     -0.92809      -0.61096      -0.22615
                        -----------------------------------------
Magnitude (a.u.)       :      1.13391
Magnitude (Debye)      :      2.88218

Rotational constants in cm-1:     0.276196     0.132056     0.105465
Rotational constants in MHz :  8280.156449  3958.940601  3161.775929

                             ****ORCA TERMINATED NORMALLY****
TOTAL RUN TIME: 0 days 0 hours 0 minutes 10 seconds 751 msec
