                         Program Version 5.0.0 -  RELEASE  -
|  1> !B3LYP D3BJ RIJCOSX def2-SVP def2/J TightSCF
|  2>
|  3> *xyz 0 1
|  4> C          3.34350        3.35457       -3.59200
|  5> C          2.95263        1.86308       -3.57485
|  6> C          4.25587        3.70385       -4.72605
|  7> C          3.73403        4.29378       -5.80077
|  8> N          5.51504        3.40725       -4.63718
|  9> H          6.14919        3.60120       -5.39905
| 10> H          5.81358        2.89950       -3.80879
| 11> H          2.74138        4.51311       -5.82470
| 12> H          4.28755        4.52126       -6.61434
| 13> H          3.86125        3.59725       -2.66298
| 14> H          2.44649        3.97346       -3.65656
| 15> H          2.44395        1.61721       -4.48352
| 16> H          2.30781        1.67290       -2.74242
| 17> H          3.83491        1.26414       -3.48670
| 18> *
| 19> %MaxCore 64000
| 20>
| 21> %pal nprocs 4
| 22> end
| 23>
| 24> %scf
| 25>   MaxIter 150
| 26> end
| 27>
| 28>
| 29>                          ****END OF INPUT****

CARTESIAN COORDINATES (ANGSTROEM)
---------------------------------
  C      3.343500    3.354570   -3.592000
  C      2.952630    1.863080   -3.574850
  C      4.255870    3.703850   -4.726050
  C      3.734030    4.293780   -5.800770
  N      5.515040    3.407250   -4.637180
  H      6.149190    3.601200   -5.399050
  H      5.813580    2.899500   -3.808790
  H      2.741380    4.513110   -5.824700
  H      4.287550    4.521260   -6.614340
  H      3.861250    3.597250   -2.662980
  H      2.446490    3.973460   -3.656560
  H      2.443950    1.617210   -4.483520
  H      2.307810    1.672900   -2.742420
  H      3.834910    1.264140   -3.486700

 Total Charge           Charge          ....    0
 Multiplicity           Mult            ....    1
 Number of Electrons    NEL             ....   40
 Basis Dimension        Dim             ....  115

ORBITAL ENERGIES
----------------

  NO   OCC          E(Eh)            E(eV)
   0   2.0000     -14.325597      -389.8193
   1   2.0000     -10.193823      -277.3880
   2   2.0000     -10.178064      -276.9592
   3   2.0000     -10.168803      -276.7072
   4   2.0000     -10.109090      -275.0823
   5   2.0000      -0.920340       -25.0437
   6   2.0000      -0.765112       -20.8198
   7   2.0000      -0.699404       -19.0318
   8   2.0000      -0.625040       -17.0082
   9   2.0000      -0.560941       -15.2640
  10   2.0000      -0.524889       -14.2830
  11   2.0000      -0.471559       -12.8318
  12   2.0000      -0.433335       -11.7916
  13   2.0000      -0.415141       -11.2966
  14   2.0000      -0.386881       -10.5276
  15   2.0000      -0.376409       -10.2426
  16   2.0000      -0.350750        -9.5444
  17   2.0000      -0.329549        -8.9675
  18   2.0000      -0.324936        -8.8420
  19   2.0000      -0.177228        -4.8226
  20   0.0000       0.045132         1.2281
  21   0.0000       0.067239         1.8297
  22   0.0000       0.094462         2.5704
  23   0.0000       0.104218         2.8359
  24   0.0000       0.117737         3.2038

MULLIKEN ATOMIC CHARGES
-----------------------
   0 C :    0.061585
   1 C :    0.063117
   2 C :   -0.159944
   3 C :   -0.022367
   4 N :   -0.011960
   5 H :    0.109008
   6 H :    0.101936
   7 H :   -0.051880
   8 H :   -0.069763
   9 H :   -0.016933
  10 H :    0.000557
  11 H :    0.005280
  12 H :    0.003780
  13 H :   -0.012416
Sum of atomic charges:   -0.0000000

LOEWDIN ATOMIC CHARGES
----------------------
   0 C :   -0.021308
   1 C :   -0.038334
   2 C :   -0.001323
   3 C :   -0.179250
   4 N :    0.011232
   5 H :    0.077804
   6 H :    0.071257
   7 H :   -0.003752
   8 H :   -0.013365
   9 H :    0.014052
  10 H :    0.030840
  11 H :    0.021607
  12 H :    0.018663
  13 H :    0.011876

  Mayer bond orders larger than 0.100000
B(  0-C ,  1-C ) :   1.0983 B(  0-C ,  2-C ) :   1.0373 B(  0-C ,  9-H ) :   0.9232
B(  0-C , 10-H ) :   0.9289 B(  1-C , 11-H ) :   0.9678 B(  1-C , 12-H ) :   0.9657
B(  1-C , 13-H ) :   0.9680 B(  2-C ,  3-C ) :   1.8478 B(  2-C ,  4-N ) :   1.3006
B(  3-C ,  7-H ) :   0.9322 B(  3-C ,  8-H ) :   0.9443 B(  4-N ,  5-H ) :   0.9436
B(  4-N ,  6-H ) :   0.9446

Dispersion correction           -0.017393645
FINAL SINGLE POINT ENERGY      -212.275444516872

DIPOLE MOMENT
-------------
                                X             Y             Z
Electronic contribution:      2.41177       1.45785      -0.84353
Nuclear contribution   :     -1.79713      -1.86925       1.28073
                        -----------------------------------------
Total Dipole Moment    :      0.61464      -0.41140       0.43720
                        -----------------------------------------
Magnitude (a.u.)       :      0.85918
Magnitude (Debye)      :      2.18385

Rotational constants in cm-1:     0.269040     0.129645     0.102087
Rotational constants in MHz :  8065.609820  3886.645139  3060.489045

                             ****ORCA TERMINATED NORMALLY****
TOTAL RUN TIME: 0 days 0 hours 0 minutes 13 seconds 406 msec
