                         Program Version 5.0.0 -  RELEASE  -
|  1> !B3LYP D3BJ RIJCOSX def2-SVP def2/J TightSCF
|  2>
|  3> *xyz 0 1
|  4> C          2.95263        1.86308       -3.57485
|  5> C          4.12921        0.89839       -3.41895
|  6> H          3.73369       -0.10060       -3.23763
|  7> H          4.71910        0.86256       -4.33901
|  8> C          5.01734        1.31521       -2.22130
|  9> O          4.73706        0.85411       -1.12283
| 10> F          5.92815        2.16811       -2.49136
| 11> H          2.35067        1.56005       -4.40594
| 12> H          3.32277        2.85258       -3.74453
| 13> H          2.36134        1.85149       -2.68315
| 14> *
| 15> %MaxCore 64000
| 16>
| 17> %pal nprocs 4
| 18> end
| 19>
| 20> %scf
| 21>   MaxIter 150
| 22> end
| 23>
| 24>
| 25>                          ****END OF INPUT****

CARTESIAN COORDINATES (ANGSTROEM)
---------------------------------
  C      2.952630    1.863080   -3.574850
  C      4.129210    0.898390   -3.418950
  H      3.733690   -0.100600   -3.237630
  H      4.719100    0.862560   -4.339010
  C      5.017340    1.315210   -2.221300
  O      4.737060    0.854110   -1.122830
  F      5.928150    2.168110   -2.491360
  H      2.350670    1.560050   -4.405940
  H      3.322770    2.852580   -3.744530
  H      2.361340    1.851490   -2.683150

 Total Charge           Charge          ....    0
 Multiplicity           Mult            ....    1
 Number of Electrons    NEL             ....   40
 Basis Dimension        Dim             ....   95

ORBITAL ENERGIES
----------------

  NO   OCC          E(Eh)            E(eV)
   0   2.0000     -24.742431      -673.2758
   1   2.0000     -19.137949      -520.7701
   2   2.0000     -10.350948      -281.6636
   3   2.0000     -10.207677      -277.7650
   4   2.0000     -10.190827      -277.3065
   5   2.0000      -1.277881       -34.7729
   6   2.0000      -1.033915       -28.1343
   7   2.0000      -0.788969       -21.4689
   8   2.0000      -0.670073       -18.2336
   9   2.0000      -0.624730       -16.9998
  10   2.0000      -0.535468       -14.5708
  11   2.0000      -0.520862       -14.1734
  12   2.0000      -0.494681       -13.4610
  13   2.0000      -0.458835       -12.4855
  14   2.0000      -0.431940       -11.7537
  15   2.0000      -0.398477       -10.8431
  16   2.0000      -0.381068       -10.3694
  17   2.0000      -0.368589       -10.0298
  18   2.0000      -0.352885        -9.6025
  19   2.0000      -0.287366        -7.8196
  20   0.0000      -0.015970        -0.4346
  21   0.0000       0.061152         1.6640
  22   0.0000       0.104304         2.8382
  23   0.0000       0.110356         3.0029
  24   0.0000       0.133030         3.6199

MULLIKEN ATOMIC CHARGES
-----------------------
   0 C :    0.014479
   1 C :   -0.025475
   2 H :    0.033654
   3 H :    0.016741
   4 C :    0.214602
   5 O :   -0.216648
   6 F :   -0.101113
   7 H :    0.021334
   8 H :    0.015117
   9 H :    0.027310
Sum of atomic charges:    0.0000000

LOEWDIN ATOMIC CHARGES
----------------------
   0 C :   -0.033103
   1 C :   -0.061167
   2 H :    0.038631
   3 H :    0.026489
   4 C :    0.098996
   5 O :   -0.160981
   6 F :    0.016043
   7 H :    0.026709
   8 H :    0.021666
   9 H :    0.026716

  Mayer bond orders larger than 0.100000
B(  0-C ,  1-C ) :   1.0958 B(  0-C ,  7-H ) :   0.9684 B(  0-C ,  8-H ) :   0.9735
B(  0-C ,  9-H ) :   0.9719 B(  1-C ,  2-H ) :   0.9427 B(  1-C ,  3-H ) :   0.9328
B(  1-C ,  4-C ) :   0.9971 B(  4-C ,  5-O ) :   2.1218 B(  4-C ,  6-F ) :   1.1645

Dispersion correction           -0.010391214
FINAL SINGLE POINT ENERGY      -292.038752878217

DIPOLE MOMENT
-------------
                                X             Y             Z
Electronic contribution:      7.07902       1.02347       4.32558
Nuclear contribution   :     -7.35982      -0.91407      -5.31589
                        -----------------------------------------
Total Dipole Moment    :     -0.28080       0.10940      -0.99031
                        -----------------------------------------
Magnitude (a.u.)       :      1.03515
Magnitude (Debye)      :      2.63114

Rotational constants in cm-1:     0.275433     0.132201     0.105422
Rotational constants in MHz :  8257.268192  3963.279062  3160.465566

                             ****ORCA TERMINATED NORMALLY****
TOTAL RUN TIME: 0 days 0 hours 0 minutes 10 seconds 267 msec
