                         Program Version 5.0.0 -  RELEASE  -
|  1> !B3LYP D3BJ RIJCOSX def2-SVP def2/J TightSCF
|  2>
|  3> *xyz 0 1
|  4> C          3.34350        3.35457       -3.59200
|  5> C          2.95263        1.86308       -3.57485
|  6> C          4.25587        3.70385       -4.72605
|  7> N          3.73403        4.29378       -5.80077
|  8> C          5.51504        3.40725       -4.63718
|  9> H          6.14919        3.60120       -5.39905
| 10> H          5.81358        2.89950       -3.80879
| 11> H          2.74138        4.51311       -5.82470
| 12> H          4.28755        4.52126       -6.61434
| 13> H          3.86125        3.59725       -2.66298
| 14> H          2.44649        3.97346       -3.65656
| 15> H          2.44395        1.61721       -4.48352
| 16> H          2.30781        1.67290       -2.74242
| 17> H          3.83491        1.26414       -3.48670
| 18> *
| 19> %MaxCore 64000
| 20>
| 21> %pal nprocs 4
| 22> end
| 23>
| 24> %scf
| 25>   MaxIter 150
| 26> end
| 27>
| 28>
| 29>                          ****END OF INPUT****

CARTESIAN COORDINATES (ANGSTROEM)
---------------------------------
  C      3.343500    3.354570   -3.592000
  C      2.952630    1.863080   -3.574850
  C      4.255870    3.703850   -4.726050
  N      3.734030    4.293780   -5.800770
  C      5.515040    3.407250   -4.637180
  H      6.149190    3.601200   -5.399050
  H      5.813580    2.899500   -3.808790
  H      2.741380    4.513110   -5.824700
  H      4.287550    4.521260   -6.614340
  H      3.861250    3.597250   -2.662980
  H      2.446490    3.973460   -3.656560
  H      2.443950    1.617210   -4.483520
  H      2.307810    1.672900   -2.742420
  H      3.834910    1.264140   -3.486700

 Total Charge           Charge          ....    0
 Multiplicity           Mult            ....    1
 Number of Electrons    NEL             ....   40
 Basis Dimension        Dim             ....  115

ORBITAL ENERGIES
----------------

  NO   OCC          E(Eh)            E(eV)
   0   2.0000     -14.320591      -389.6831
   1   2.0000     -10.191479      -277.3242
   2   2.0000     -10.177721      -276.9499
   3   2.0000     -10.166511      -276.6448
   4   2.0000     -10.107851      -275.0486
   5   2.0000      -0.905025       -24.6270
   6   2.0000      -0.767257       -20.8781
   7   2.0000      -0.703431       -19.1413
   8   2.0000      -0.626087       -17.0367
   9   2.0000      -0.554186       -15.0802
  10   2.0000      -0.512569       -13.9477
  11   2.0000      -0.474920       -12.9232
  12   2.0000      -0.434486       -11.8230
  13   2.0000      -0.408634       -11.1195
  14   2.0000      -0.387192       -10.5360
  15   2.0000      -0.377527       -10.2730
  16   2.0000      -0.346394        -9.4259
  17   2.0000      -0.333948        -9.0872
  18   2.0000      -0.319809        -8.7024
  19   2.0000      -0.181406        -4.9363
  20   0.0000       0.048894         1.3305
  21   0.0000       0.067782         1.8444
  22   0.0000       0.095859         2.6085
  23   0.0000       0.101347         2.7578
  24   0.0000       0.121936         3.3180

MULLIKEN ATOMIC CHARGES
-----------------------
   0 C :    0.063561
   1 C :    0.060973
   2 C :   -0.121861
   3 N :   -0.065302
   4 C :   -0.004815
   5 H :   -0.068902
   6 H :   -0.051896
   7 H :    0.100094
   8 H :    0.103028
   9 H :    0.008589
  10 H :   -0.026747
  11 H :   -0.002963
  12 H :    0.000268
  13 H :    0.005972
Sum of atomic charges:    0.0000000

LOEWDIN ATOMIC CHARGES
----------------------
   0 C :   -0.021889
   1 C :   -0.034901
   2 C :    0.006238
   3 N :   -0.011055
   4 C :   -0.164991
   5 H :   -0.009349
   6 H :   -0.001120
   7 H :    0.067617
   8 H :    0.071950
   9 H :    0.030987
  10 H :    0.012616
  11 H :    0.016955
  12 H :    0.016647
  13 H :    0.020294

  Mayer bond orders larger than 0.100000
B(  0-C ,  1-C ) :   1.1051 B(  0-C ,  2-C ) :   1.0190 B(  0-C ,  9-H ) :   0.9317
B(  0-C , 10-H ) :   0.9258 B(  1-C , 11-H ) :   0.9670 B(  1-C , 12-H ) :   0.9650
B(  1-C , 13-H ) :   0.9716 B(  2-C ,  3-N ) :   1.2578 B(  2-C ,  4-C ) :   1.8920
B(  3-N ,  7-H ) :   0.9494 B(  3-N ,  8-H ) :   0.9499 B(  4-C ,  5-H ) :   0.9416
B(  4-C ,  6-H ) :   0.9228

Dispersion correction           -0.017415736
FINAL SINGLE POINT ENERGY      -212.275148068919

DIPOLE MOMENT
-------------
                                X             Y             Z
Electronic contribution:      0.73402       2.31101      -1.92203
Nuclear contribution   :     -1.38463      -2.07457       1.55023
                        -----------------------------------------
Total Dipole Moment    :     -0.65060       0.23644      -0.37180
                        -----------------------------------------
Magnitude (a.u.)       :      0.78576
Magnitude (Debye)      :      1.99725

Rotational constants in cm-1:     0.272312     0.128195     0.101724
Rotational constants in MHz :  8163.717141  3843.180148  3049.598073

                             ****ORCA TERMINATED NORMALLY****
TOTAL RUN TIME: 0 days 0 hours 0 minutes 12 seconds 804 msec
