                         Program Version 5.0.0 -  RELEASE  -
|  1> !B3LYP D3BJ RIJCOSX def2-TZVP def2/J TightSCF xyzfile
|  2>
|  3> *xyzfile 0 1 D1.xyz
|  4>
|  5> %MaxCore 64000
|  6>
|  7> %pal nprocs 18
|  8> end
|  9>
| 10> %scf
| 11>   MaxIter 150
| 12> end
| 13>
| 14>
| 15>                          ****END OF INPUT****

CARTESIAN COORDINATES (ANGSTROEM)
---------------------------------
  C      3.343500    3.354571   -3.591998
  C      2.952633    1.863077   -3.574849
  C      4.129209    0.898394   -3.418950
  H      3.733687   -0.100605   -3.237633
  H      4.719095    0.862556   -4.339005
  C      5.017344    1.315212   -2.221305
  C      4.255868    3.703851   -4.726054
  C      3.734032    4.293783   -5.800770
  N      5.515039    3.407255   -4.637185
  H      6.149187    3.601203   -5.399053
  H      5.813584    2.899504   -3.808785
  H      2.741380    4.513109   -5.824701
  H      4.287548    4.521260   -6.614341
  H      2.278938    1.735250   -2.725496
  H      2.377466    1.625787   -4.475869
  F      4.737055    0.854112   -1.122825
  O      5.928146    2.168108   -2.491365
  H      3.861246    3.597252   -2.662979
  H      2.446493    3.973461   -3.656556

 Total Charge           Charge          ....    0
 Multiplicity           Mult            ....    1
 Number of Electrons    NEL             ....   70
 Basis Dimension        Dim             ....  339

ORBITAL ENERGIES
----------------

  NO   OCC          E(Eh)            E(eV)
   0   2.0000     -24.786730      -674.4812
   1   2.0000     -19.155260      -521.2411
   2   2.0000     -14.278818      -388.5464
   3   2.0000     -10.377650      -282.3902
   4   2.0000     -10.208237      -277.7802
   5   2.0000     -10.190799      -277.3057
   6   2.0000     -10.175817      -276.8980
   7   2.0000     -10.169353      -276.7222
   8   2.0000     -10.087004      -274.4813
   9   2.0000      -1.366116       -37.1739
  10   2.0000      -1.058838       -28.8125
  11   2.0000      -0.914814       -24.8934
  12   2.0000      -0.822046       -22.3690
  13   2.0000      -0.750227       -20.4147
  14   2.0000      -0.710731       -19.3400
  15   2.0000      -0.679451       -18.4888
  16   2.0000      -0.630330       -17.1521
  17   2.0000      -0.585064       -15.9204
  18   2.0000      -0.576229       -15.6800
  19   2.0000      -0.548783       -14.9331
  20   2.0000      -0.545449       -14.8424
  21   2.0000      -0.505889       -13.7659
  22   2.0000      -0.483314       -13.1517
  23   2.0000      -0.459115       -12.4932
  24   2.0000      -0.443667       -12.0728
  25   2.0000      -0.430485       -11.7141
  26   2.0000      -0.393636       -10.7114
  27   2.0000      -0.385261       -10.4835
  28   2.0000      -0.374907       -10.2017
  29   2.0000      -0.373282       -10.1575
  30   2.0000      -0.358848        -9.7648
  31   2.0000      -0.328843        -8.9483
  32   2.0000      -0.321694        -8.7537
  33   2.0000      -0.305797        -8.3212
  34   2.0000      -0.171596        -4.6694
  35   0.0000      -0.057353        -1.5606
  36   0.0000       0.027125         0.7381
  37   0.0000       0.050135         1.3643
  38   0.0000       0.063390         1.7249
  39   0.0000       0.067646         1.8407

MULLIKEN ATOMIC CHARGES
-----------------------
   0 C :   -0.223925
   1 C :   -0.183380
   2 C :   -0.225078
   3 H :    0.114621
   4 H :    0.141835
   5 C :    0.394543
   6 C :    0.209114
   7 C :   -0.429943
   8 N :   -0.439785
   9 H :    0.199586
  10 H :    0.272039
  11 H :    0.077256
  12 H :    0.076460
  13 H :    0.098747
  14 H :    0.111014
  15 F :   -0.061934
  16 O :   -0.352871
  17 H :    0.113918
  18 H :    0.107780
Sum of atomic charges:    0.0000000

LOEWDIN ATOMIC CHARGES
----------------------
   0 C :   -0.207701
   1 C :   -0.243131
   2 C :   -0.227233
   3 H :    0.141757
   4 H :    0.154291
   5 C :   -0.477676
   6 C :   -0.374362
   7 C :   -0.295999
   8 N :    0.019823
   9 H :    0.165117
  10 H :    0.132016
  11 H :    0.099174
  12 H :    0.091419
  13 H :    0.136537
  14 H :    0.144180
  15 F :    0.390115
  16 O :    0.062622
  17 H :    0.139960
  18 H :    0.149092

  Mayer bond orders larger than 0.100000
B(  0-C ,  1-C ) :   0.9460 B(  0-C ,  6-C ) :   0.9406 B(  0-C , 17-H ) :   0.9793
B(  0-C , 18-H ) :   0.9756 B(  1-C ,  2-C ) :   0.9665 B(  1-C , 13-H ) :   0.9662
B(  1-C , 14-H ) :   0.9561 B(  2-C ,  3-H ) :   0.9543 B(  2-C ,  4-H ) :   0.9458
B(  2-C ,  5-C ) :   0.9945 B(  5-C , 15-F ) :   1.2080 B(  5-C , 16-O ) :   1.8754
B(  6-C ,  7-C ) :   1.7032 B(  6-C ,  8-N ) :   1.2396 B(  7-C , 11-H ) :   0.9923
B(  7-C , 12-H ) :   0.9916 B(  8-N ,  9-H ) :   0.9262 B(  8-N , 10-H ) :   0.8304
B( 10-H , 16-O ) :   0.1347

Dispersion correction           -0.031301689
FINAL SINGLE POINT ENERGY      -464.386542398253

DIPOLE MOMENT
-------------
                                X             Y             Z
Electronic contribution:      5.56847      -5.95451      10.56522
Nuclear contribution   :     -5.86483       4.68058     -10.07545
                        -----------------------------------------
Total Dipole Moment    :     -0.29637      -1.27393       0.48977
                        -----------------------------------------
Magnitude (a.u.)       :      1.39664
Magnitude (Debye)      :      3.54998

Rotational constants in cm-1:     0.107256     0.035474     0.030113
Rotational constants in MHz :  3215.453922  1063.481574   902.777619

                             ****ORCA TERMINATED NORMALLY****
TOTAL RUN TIME: 0 days 0 hours 0 minutes 31 seconds 444 msec
