                         Program Version 5.0.0 -  RELEASE  -
|  1> !B3LYP D3BJ RIJCOSX def2-TZVP def2/J TightSCF xyzfile
|  2>
|  3> *xyzfile 0 1 D2.xyz
|  4>
|  5> %MaxCore 64000
|  6>
|  7> %pal nprocs 18
|  8> end
|  9>
| 10> %scf
| 11>   MaxIter 150
| 12> end
| 13>
| 14>
| 15>                          ****END OF INPUT****

CARTESIAN COORDINATES (ANGSTROEM)
---------------------------------
  C      3.343500    3.354571   -3.591998
  C      2.952633    1.863077   -3.574849
  C      4.129209    0.898394   -3.418950
  H      3.733687   -0.100605   -3.237633
  H      4.719095    0.862556   -4.339005
  C      5.017344    1.315212   -2.221305
  C      4.255868    3.703851   -4.726054
  N      3.734032    4.293783   -5.800770
  C      5.515039    3.407255   -4.637185
  H      6.149187    3.601203   -5.399053
  H      5.813584    2.899504   -3.808785
  H      2.741380    4.513109   -5.824701
  H      4.287548    4.521260   -6.614341
  H      2.278938    1.735250   -2.725496
  H      2.377466    1.625787   -4.475869
  F      4.737055    0.854112   -1.122825
  O      5.928146    2.168108   -2.491365
  H      3.861246    3.597252   -2.662979
  H      2.446493    3.973461   -3.656556

 Total Charge           Charge          ....    0
 Multiplicity           Mult            ....    1
 Number of Electrons    NEL             ....   70
 Basis Dimension        Dim             ....  339

ORBITAL ENERGIES
----------------

  NO   OCC          E(Eh)            E(eV)
   0   2.0000     -24.767594      -673.9605
   1   2.0000     -19.128448      -520.5115
   2   2.0000     -14.302194      -389.1825
   3   2.0000     -10.354778      -281.7678
   4   2.0000     -10.194958      -277.4189
   5   2.0000     -10.186592      -277.1913
   6   2.0000     -10.170181      -276.7447
   7   2.0000     -10.168531      -276.6998
   8   2.0000     -10.064358      -273.8651
   9   2.0000      -1.347640       -36.6711
  10   2.0000      -1.032953       -28.1081
  11   2.0000      -0.912182       -24.8217
  12   2.0000      -0.815082       -22.1795
  13   2.0000      -0.747775       -20.3480
  14   2.0000      -0.699759       -19.0414
  15   2.0000      -0.678319       -18.4580
  16   2.0000      -0.619716       -16.8633
  17   2.0000      -0.572107       -15.5678
  18   2.0000      -0.561573       -15.2812
  19   2.0000      -0.543881       -14.7998
  20   2.0000      -0.527251       -14.3472
  21   2.0000      -0.497565       -13.5394
  22   2.0000      -0.476518       -12.9667
  23   2.0000      -0.463372       -12.6090
  24   2.0000      -0.446383       -12.1467
  25   2.0000      -0.415711       -11.3121
  26   2.0000      -0.390429       -10.6241
  27   2.0000      -0.389000       -10.5852
  28   2.0000      -0.362009        -9.8508
  29   2.0000      -0.354184        -9.6378
  30   2.0000      -0.349609        -9.5133
  31   2.0000      -0.324465        -8.8291
  32   2.0000      -0.317713        -8.6454
  33   2.0000      -0.266722        -7.2579
  34   2.0000      -0.176372        -4.7993
  35   0.0000      -0.037712        -1.0262
  36   0.0000       0.025232         0.6866
  37   0.0000       0.046461         1.2643
  38   0.0000       0.055615         1.5134
  39   0.0000       0.070282         1.9125

MULLIKEN ATOMIC CHARGES
-----------------------
   0 C :   -0.222494
   1 C :   -0.186505
   2 C :   -0.212192
   3 H :    0.105866
   4 H :    0.144670
   5 C :    0.360276
   6 C :    0.238309
   7 N :   -0.460806
   8 C :   -0.478452
   9 H :    0.063010
  10 H :    0.198624
  11 H :    0.207331
  12 H :    0.215231
  13 H :    0.099886
  14 H :    0.100374
  15 F :   -0.070087
  16 O :   -0.316465
  17 H :    0.132800
  18 H :    0.080628
Sum of atomic charges:    0.0000000

LOEWDIN ATOMIC CHARGES
----------------------
   0 C :   -0.209855
   1 C :   -0.244493
   2 C :   -0.227244
   3 H :    0.138871
   4 H :    0.155573
   5 C :   -0.491397
   6 C :   -0.373841
   7 N :   -0.018223
   8 C :   -0.254194
   9 H :    0.093138
  10 H :    0.087839
  11 H :    0.160814
  12 H :    0.164563
  13 H :    0.136083
  14 H :    0.139649
  15 F :    0.380411
  16 O :    0.077527
  17 H :    0.150824
  18 H :    0.133957

  Mayer bond orders larger than 0.100000
B(  0-C ,  1-C ) :   0.9452 B(  0-C ,  6-C ) :   0.9370 B(  0-C , 17-H ) :   0.9918
B(  0-C , 18-H ) :   0.9736 B(  1-C ,  2-C ) :   0.9726 B(  1-C , 13-H ) :   0.9704
B(  1-C , 14-H ) :   0.9566 B(  2-C ,  3-H ) :   0.9545 B(  2-C ,  4-H ) :   0.9472
B(  2-C ,  5-C ) :   0.9950 B(  5-C , 15-F ) :   1.1900 B(  5-C , 16-O ) :   1.9447
B(  6-C ,  7-N ) :   1.1122 B(  6-C ,  8-C ) :   1.7339 B(  7-N , 11-H ) :   0.9289
B(  7-N , 12-H ) :   0.9237 B(  8-C ,  9-H ) :   0.9887 B(  8-C , 10-H ) :   0.9533

Dispersion correction           -0.031530930
FINAL SINGLE POINT ENERGY      -464.361154839114

DIPOLE MOMENT
-------------
                                X             Y             Z
Electronic contribution:      4.29406      -5.11569       9.54544
Nuclear contribution   :     -5.64491       4.57111      -9.93176
                        -----------------------------------------
Total Dipole Moment    :     -1.35085      -0.54458      -0.38632
                        -----------------------------------------
Magnitude (a.u.)       :      1.50685
Magnitude (Debye)      :      3.83011

Rotational constants in cm-1:     0.109825     0.034347     0.029470
Rotational constants in MHz :  3292.465653  1029.684117   883.494260

                             ****ORCA TERMINATED NORMALLY****
TOTAL RUN TIME: 0 days 0 hours 0 minutes 24 seconds 107 msec
