                         Program Version 5.0.0 -  RELEASE  -
|  1> !B3LYP D3BJ RIJCOSX def2-TZVP def2/J TightSCF xyzfile
|  2>
|  3> *xyzfile 0 1 D4.xyz
|  4>
|  5> %MaxCore 64000
|  6>
|  7> %pal nprocs 18
|  8> end
|  9>
| 10> %scf
| 11>   MaxIter 150
| 12> end
| 13>
| 14>
| 15>                          ****END OF INPUT****

CARTESIAN COORDINATES (ANGSTROEM)
---------------------------------
  C      3.343500    3.354571   -3.591998
  C      2.952633    1.863077   -3.574849
  C      4.129209    0.898394   -3.418950
  H      3.733687   -0.100605   -3.237633
  H      4.719095    0.862556   -4.339005
  C      5.017344    1.315212   -2.221305
  C      4.255868    3.703851   -4.726054
  N      3.734032    4.293783   -5.800770
  C      5.515039    3.407255   -4.637185
  H      6.149187    3.601203   -5.399053
  H      5.813584    2.899504   -3.808785
  H      2.741380    4.513109   -5.824701
  H      4.287548    4.521260   -6.614341
  H      2.278938    1.735250   -2.725496
  H      2.377466    1.625787   -4.475869
  O      4.737055    0.854112   -1.122825
  F      5.928146    2.168108   -2.491365
  H      3.861246    3.597252   -2.662979
  H      2.446493    3.973461   -3.656556

 Total Charge           Charge          ....    0
 Multiplicity           Mult            ....    1
 Number of Electrons    NEL             ....   70
 Basis Dimension        Dim             ....  339

ORBITAL ENERGIES
----------------

  NO   OCC          E(Eh)            E(eV)
   0   2.0000     -24.745599      -673.3620
   1   2.0000     -19.136730      -520.7369
   2   2.0000     -14.315457      -389.5434
   3   2.0000     -10.345806      -281.5237
   4   2.0000     -10.192393      -277.3491
   5   2.0000     -10.186970      -277.2015
   6   2.0000     -10.186407      -277.1862
   7   2.0000     -10.177990      -276.9572
   8   2.0000     -10.087202      -274.4867
   9   2.0000      -1.314235       -35.7622
  10   2.0000      -1.054860       -28.7042
  11   2.0000      -0.925527       -25.1849
  12   2.0000      -0.818396       -22.2697
  13   2.0000      -0.753661       -20.5082
  14   2.0000      -0.709106       -19.2957
  15   2.0000      -0.674465       -18.3531
  16   2.0000      -0.618965       -16.8429
  17   2.0000      -0.583536       -15.8788
  18   2.0000      -0.544046       -14.8043
  19   2.0000      -0.535070       -14.5600
  20   2.0000      -0.523576       -14.2472
  21   2.0000      -0.505780       -13.7630
  22   2.0000      -0.481629       -13.1058
  23   2.0000      -0.462460       -12.5842
  24   2.0000      -0.446346       -12.1457
  25   2.0000      -0.420080       -11.4310
  26   2.0000      -0.397759       -10.8236
  27   2.0000      -0.384256       -10.4562
  28   2.0000      -0.375925       -10.2294
  29   2.0000      -0.366862        -9.9828
  30   2.0000      -0.352343        -9.5877
  31   2.0000      -0.333089        -9.0638
  32   2.0000      -0.328886        -8.9494
  33   2.0000      -0.296004        -8.0547
  34   2.0000      -0.192614        -5.2413
  35   0.0000      -0.027343        -0.7440
  36   0.0000       0.020746         0.5645
  37   0.0000       0.039271         1.0686
  38   0.0000       0.054915         1.4943
  39   0.0000       0.064808         1.7635

MULLIKEN ATOMIC CHARGES
-----------------------
   0 C :   -0.239750
   1 C :   -0.166656
   2 C :   -0.210350
   3 H :    0.115650
   4 H :    0.136082
   5 C :    0.339630
   6 C :    0.255442
   7 N :   -0.455608
   8 C :   -0.462297
   9 H :    0.073930
  10 H :    0.140350
  11 H :    0.214026
  12 H :    0.218357
  13 H :    0.108590
  14 H :    0.094660
  15 O :   -0.283078
  16 F :   -0.099006
  17 H :    0.132790
  18 H :    0.087239
Sum of atomic charges:    0.0000000

LOEWDIN ATOMIC CHARGES
----------------------
   0 C :   -0.207687
   1 C :   -0.241573
   2 C :   -0.225782
   3 H :    0.148222
   4 H :    0.146033
   5 C :   -0.493395
   6 C :   -0.366729
   7 N :   -0.009741
   8 C :   -0.266039
   9 H :    0.096112
  10 H :    0.091193
  11 H :    0.164598
  12 H :    0.166554
  13 H :    0.141498
  14 H :    0.138118
  15 O :    0.112218
  16 F :    0.319569
  17 H :    0.150468
  18 H :    0.136363

  Mayer bond orders larger than 0.100000
B(  0-C ,  1-C ) :   0.9573 B(  0-C ,  6-C ) :   0.9303 B(  0-C , 17-H ) :   0.9929
B(  0-C , 18-H ) :   0.9743 B(  1-C ,  2-C ) :   0.9792 B(  1-C , 13-H ) :   0.9640
B(  1-C , 14-H ) :   0.9542 B(  2-C ,  3-H ) :   0.9588 B(  2-C ,  4-H ) :   0.9393
B(  2-C ,  5-C ) :   0.9811 B(  5-C , 15-O ) :   2.1129 B(  5-C , 16-F ) :   1.0886
B(  6-C ,  7-N ) :   1.1323 B(  6-C ,  8-C ) :   1.7220 B(  7-N , 11-H ) :   0.9265
B(  7-N , 12-H ) :   0.9230 B(  8-C ,  9-H ) :   0.9880 B(  8-C , 10-H ) :   0.9983

Dispersion correction           -0.031207379
FINAL SINGLE POINT ENERGY      -464.379107671700

DIPOLE MOMENT
-------------
                                X             Y             Z
Electronic contribution:      6.17062      -2.80310       7.08987
Nuclear contribution   :     -6.99695       3.07955      -8.37829
                        -----------------------------------------
Total Dipole Moment    :     -0.82634       0.27645      -1.28842
                        -----------------------------------------
Magnitude (a.u.)       :      1.55540
Magnitude (Debye)      :      3.95352

Rotational constants in cm-1:     0.106302     0.035771     0.030198
Rotational constants in MHz :  3186.860872  1072.397550   905.318354

                             ****ORCA TERMINATED NORMALLY****
TOTAL RUN TIME: 0 days 0 hours 0 minutes 26 seconds 158 msec
