                         Program Version 5.0.0 -  RELEASE  -
|  1> !wB97X-D3 RIJCOSX def2-TZVP def2/J TightSCF
|  2> *xyz -1 1
|  3> C         -2.79070       -0.78527        5.70281
|  4> C         -2.45380        0.05510        6.94145
|  5> C         -2.07842        1.48042        6.56410
|  6> H         -1.62558       -0.38216        7.49891
|  7> H         -3.32527        0.08775        7.59917
|  8> O         -0.90125        1.85816        6.82810
|  9> O         -2.93658        2.17731        5.96415
| 10> H         -1.94052       -0.82114        5.05412
| 11> H         -3.61590       -0.34261        5.18514
| 12> H         -3.05063       -1.77815        6.00536
| 13> *
| 14> %MaxCore 64000
| 15>
| 16> %pal nprocs 4
| 17> end
| 18>
| 19> %scf
| 20>   MaxIter 150
| 21> end
| 22>
| 23>
| 24>                          ****END OF INPUT****

CARTESIAN COORDINATES (ANGSTROEM)
---------------------------------
  C     -2.790700   -0.785270    5.702810
  C     -2.453800    0.055100    6.941450
  C     -2.078420    1.480420    6.564100
  H     -1.625580   -0.382160    7.498910
  H     -3.325270    0.087750    7.599170
  O     -0.901250    1.858160    6.828100
  O     -2.936580    2.177310    5.964150
  H     -1.940520   -0.821140    5.054120
  H     -3.615900   -0.342610    5.185140
  H     -3.050630   -1.778150    6.005360

 Total Charge           Charge          ....   -1
 Multiplicity           Mult            ....    1
 Number of Electrons    NEL             ....   40
 Basis Dimension        Dim             ....  185

ORBITAL ENERGIES
----------------

  NO   OCC          E(Eh)            E(eV)
   0   2.0000     -18.952437      -515.7220
   1   2.0000     -18.950865      -515.6793
   2   2.0000     -10.149105      -276.1712
   3   2.0000     -10.109050      -275.0812
   4   2.0000     -10.096387      -274.7367
   5   2.0000      -0.923925       -25.1413
   6   2.0000      -0.828153       -22.5352
   7   2.0000      -0.719672       -19.5833
   8   2.0000      -0.583955       -15.8902
   9   2.0000      -0.421746       -11.4763
  10   2.0000      -0.391409       -10.6508
  11   2.0000      -0.356315        -9.6958
  12   2.0000      -0.324206        -8.8221
  13   2.0000      -0.307372        -8.3640
  14   2.0000      -0.299997        -8.1633
  15   2.0000      -0.266660        -7.2562
  16   2.0000      -0.250861        -6.8263
  17   2.0000      -0.130504        -3.5512
  18   2.0000      -0.127129        -3.4594
  19   2.0000      -0.112587        -3.0636
  20   0.0000       0.263022         7.1572
  21   0.0000       0.304865         8.2958
  22   0.0000       0.325169         8.8483
  23   0.0000       0.329898         8.9770
  24   0.0000       0.343543         9.3483

MULLIKEN ATOMIC CHARGES
-----------------------
   0 C :   -0.322865
   1 C :   -0.119611
   2 C :    0.257567
   3 H :    0.045312
   4 H :    0.036399
   5 O :   -0.572343
   6 O :   -0.572034
   7 H :    0.091188
   8 H :    0.101023
   9 H :    0.055366
Sum of atomic charges:   -1.0000000

LOEWDIN ATOMIC CHARGES
----------------------
   0 C :   -0.319971
   1 C :   -0.287433
   2 C :   -0.686816
   3 H :    0.118645
   4 H :    0.119819
   5 O :   -0.133695
   6 O :   -0.123974
   7 H :    0.108923
   8 H :    0.111839
   9 H :    0.092662

  Mayer bond orders larger than 0.100000
B(  0-C ,  1-C ) :   0.9633 B(  0-C ,  7-H ) :   0.9853 B(  0-C ,  8-H ) :   0.9748
B(  0-C ,  9-H ) :   0.9778 B(  1-C ,  2-C ) :   0.9438 B(  1-C ,  3-H ) :   0.9649
B(  1-C ,  4-H ) :   0.9620 B(  2-C ,  5-O ) :   1.8426 B(  2-C ,  6-O ) :   1.8117

Dispersion correction           -0.001962864
FINAL SINGLE POINT ENERGY      -267.865427661490

DIPOLE MOMENT
-------------
                                X             Y             Z
Electronic contribution:      1.64664       5.57405       0.67161
Nuclear contribution   :     -2.24498      -7.51881      -0.57245
                        -----------------------------------------
Total Dipole Moment    :     -0.59834      -1.94476       0.09916
                        -----------------------------------------
Magnitude (a.u.)       :      2.03714
Magnitude (Debye)      :      5.17800

Rotational constants in cm-1:     0.305589     0.135336     0.107479
Rotational constants in MHz :  9161.317320  4057.276612  3222.126231

                             ****ORCA TERMINATED NORMALLY****
TOTAL RUN TIME: 0 days 0 hours 0 minutes 31 seconds 359 msec
