                         Program Version 5.0.0 -  RELEASE  -
|  1> !wB97X-D3 RIJCOSX def2-TZVP def2/J TightSCF
|  2> *xyz 1 1
|  3> C         -0.69912        3.48945        3.75516
|  4> H         -0.96672        4.34901        3.14049
|  5> N         -1.08067        3.79296        5.15686
|  6> C          0.77696        3.13839        3.61741
|  7> H         -1.33146        2.65651        3.44632
|  8> H         -0.87449        4.76274        5.42734
|  9> H         -0.68079        3.13476        5.83900
| 10> H         -2.05755        3.53169        5.34620
| 11> H          0.99957        2.92898        2.59199
| 12> H          0.99576        2.27685        4.21303
| 13> H          1.37223        3.96279        3.95046
| 14> *
| 15> %MaxCore 64000
| 16>
| 17> %pal nprocs 4
| 18> end
| 19>
| 20> %scf
| 21>   MaxIter 150
| 22> end
| 23>
| 24>
| 25>                          ****END OF INPUT****

CARTESIAN COORDINATES (ANGSTROEM)
---------------------------------
  C     -0.699120    3.489450    3.755160
  H     -0.966720    4.349010    3.140490
  N     -1.080670    3.792960    5.156860
  C      0.776960    3.138390    3.617410
  H     -1.331460    2.656510    3.446320
  H     -0.874490    4.762740    5.427340
  H     -0.680790    3.134760    5.839000
  H     -2.057550    3.531690    5.346200
  H      0.999570    2.928980    2.591990
  H      0.995760    2.276850    4.213030
  H      1.372230    3.962790    3.950460

 Total Charge           Charge          ....    1
 Multiplicity           Mult            ....    1
 Number of Electrons    NEL             ....   26
 Basis Dimension        Dim             ....  141

ORBITAL ENERGIES
----------------

  NO   OCC          E(Eh)            E(eV)
   0   2.0000     -14.758523      -401.5998
   1   2.0000     -10.529002      -286.5087
   2   2.0000     -10.446470      -284.2629
   3   2.0000      -1.335311       -36.3357
   4   2.0000      -1.082194       -29.4480
   5   2.0000      -0.956438       -26.0260
   6   2.0000      -0.918308       -24.9884
   7   2.0000      -0.869295       -23.6547
   8   2.0000      -0.798834       -21.7374
   9   2.0000      -0.742972       -20.2173
  10   2.0000      -0.677345       -18.4315
  11   2.0000      -0.662560       -18.0292
  12   2.0000      -0.644884       -17.5482
  13   0.0000      -0.110164        -2.9977
  14   0.0000      -0.049018        -1.3339
  15   0.0000      -0.046265        -1.2589
  16   0.0000      -0.027106        -0.7376
  17   0.0000       0.009968         0.2712

MULLIKEN ATOMIC CHARGES
-----------------------
   0 C :   -0.194803
   1 H :    0.194145
   2 N :   -0.313727
   3 C :   -0.360061
   4 H :    0.182233
   5 H :    0.348146
   6 H :    0.326804
   7 H :    0.336623
   8 H :    0.182452
   9 H :    0.148457
  10 H :    0.149732
Sum of atomic charges:    1.0000000

LOEWDIN ATOMIC CHARGES
----------------------
   0 C :   -0.277117
   1 H :    0.153508
   2 N :    0.165411
   3 C :   -0.275401
   4 H :    0.151621
   5 H :    0.225831
   6 H :    0.223783
   7 H :    0.226652
   8 H :    0.146662
   9 H :    0.128870
  10 H :    0.130179

  Mayer bond orders larger than 0.100000
B(  0-C ,  1-H ) :   0.9552 B(  0-C ,  2-N ) :   0.8646 B(  0-C ,  3-C ) :   1.0033
B(  0-C ,  4-H ) :   0.9539 B(  2-N ,  5-H ) :   0.8647 B(  2-N ,  6-H ) :   0.8750
B(  2-N ,  7-H ) :   0.8769 B(  3-C ,  8-H ) :   0.9591 B(  3-C ,  9-H ) :   0.9615
B(  3-C , 10-H ) :   0.9605

Dispersion correction           -0.001535741
FINAL SINGLE POINT ENERGY      -135.545717802925

DIPOLE MOMENT
-------------
                                X             Y             Z
Electronic contribution:     -1.34474       0.57652       1.11786
Nuclear contribution   :      0.33986      -0.24565       0.10678
                        -----------------------------------------
Total Dipole Moment    :     -1.00489       0.33086       1.22464
                        -----------------------------------------
Magnitude (a.u.)       :      1.61834
Magnitude (Debye)      :      4.11349

Rotational constants in cm-1:     1.016237     0.277523     0.247812
Rotational constants in MHz : 30466.024354  8319.937961  7429.230177

                             ****ORCA TERMINATED NORMALLY****
TOTAL RUN TIME: 0 days 0 hours 0 minutes 18 seconds 688 msec
