                         Program Version 5.0.0 -  RELEASE  -
|  1> !wB97X-D3 RIJCOSX def2-TZVP def2/J TightSCF xyzfile
|  2>
|  3> *xyzfile 0 1 B.xyz
|  4>
|  5> %MaxCore 64000
|  6>
|  7> %pal nprocs 18
|  8> end
|  9>
| 10> %scf
| 11>   MaxIter 150
| 12> end
| 13>
| 14>
| 15>                          ****END OF INPUT****

CARTESIAN COORDINATES (ANGSTROEM)
---------------------------------
  C     -0.699123    3.489451    3.755163
  H     -0.966716    4.349013    3.140491
  N     -1.080669    3.792957    5.156857
  C      0.776956    3.138391    3.617408
  H     -1.331455    2.656510    3.446323
  H      1.371398    3.888342    4.149744
  H      1.046926    3.232057    2.561331
  C      1.118917    1.731170    4.115155
  H      2.200573    1.654226    4.254882
  C      0.659466    0.635182    3.153306
  H      0.677024    1.576674    5.103150
  H      1.312288    0.638870    2.274207
  H     -0.339563    0.868049    2.772876
  C      0.639957   -0.771175    3.755619
  C     -0.341821   -0.965537    4.915046
  H      1.648266   -1.028665    4.097015
  H      0.398568   -1.482386    2.958453
  H     -0.279892   -2.005646    5.252547
  C     -1.789164   -0.639231    4.557496
  H     -0.032380   -0.352918    5.765118
  H     -2.107151   -1.270102    3.719619
  H     -1.856352    0.391636    4.197604
  C     -2.790700   -0.785275    5.702812
  H     -2.867308   -1.835651    6.001675
  H     -3.774554   -0.486577    5.334807
  C     -2.453797    0.055101    6.941445
  C     -2.078419    1.480421    6.564098
  H     -1.625584   -0.382163    7.498914
  H     -3.325274    0.087746    7.599175
  H     -0.874488    4.762737    5.427344
  H     -0.680793    3.134762    5.839000
  H     -2.057550    3.531691    5.346197
  O     -0.901252    1.858156    6.828104
  O     -2.936582    2.177309    5.964151

 Total Charge           Charge          ....    0
 Multiplicity           Mult            ....    1
 Number of Electrons    NEL             ....  104
 Basis Dimension        Dim             ....  529

ORBITAL ENERGIES
----------------

  NO   OCC          E(Eh)            E(eV)
   0   2.0000     -19.162206      -521.4301
   1   2.0000     -19.160357      -521.3798
   2   2.0000     -14.503909      -394.6714
   3   2.0000     -10.348226      -281.5895
   4   2.0000     -10.345378      -281.5121
   5   2.0000     -10.298085      -280.2251
   6   2.0000     -10.273092      -279.5450
   7   2.0000     -10.269890      -279.4579
   8   2.0000     -10.263312      -279.2789
   9   2.0000     -10.253924      -279.0235
  10   2.0000     -10.253670      -279.0166
  11   2.0000     -10.252454      -278.9835
  12   2.0000     -10.245589      -278.7966
  13   2.0000      -1.143675       -31.1210
  14   2.0000      -1.099565       -29.9207
  15   2.0000      -1.041432       -28.3388
  16   2.0000      -0.940416       -25.5900
  17   2.0000      -0.911366       -24.7995
  18   2.0000      -0.882286       -24.0082
  19   2.0000      -0.834501       -22.7079
  20   2.0000      -0.801265       -21.8035
  21   2.0000      -0.761269       -20.7152
  22   2.0000      -0.721610       -19.6360
  23   2.0000      -0.701654       -19.0930
  24   2.0000      -0.684132       -18.6162
  25   2.0000      -0.657276       -17.8854
  26   2.0000      -0.649744       -17.6804
  27   2.0000      -0.602837       -16.4040
  28   2.0000      -0.587216       -15.9790
  29   2.0000      -0.575843       -15.6695
  30   2.0000      -0.574507       -15.6331
  31   2.0000      -0.547953       -14.9106
  32   2.0000      -0.543503       -14.7895
  33   2.0000      -0.531691       -14.4681
  34   2.0000      -0.519760       -14.1434
  35   2.0000      -0.506457       -13.7814
  36   2.0000      -0.497511       -13.5379
  37   2.0000      -0.496954       -13.5228
  38   2.0000      -0.482835       -13.1386
  39   2.0000      -0.474828       -12.9207
  40   2.0000      -0.457665       -12.4537
  41   2.0000      -0.451624       -12.2893
  42   2.0000      -0.444496       -12.0954
  43   2.0000      -0.429141       -11.6775
  44   2.0000      -0.418223       -11.3804
  45   2.0000      -0.413297       -11.2464
  46   2.0000      -0.398612       -10.8468
  47   2.0000      -0.393068       -10.6959
  48   2.0000      -0.386981       -10.5303
  49   2.0000      -0.340044        -9.2531
  50   2.0000      -0.326511        -8.8848
  51   2.0000      -0.326390        -8.8815
  52   0.0000       0.083570         2.2741
  53   0.0000       0.116992         3.1835
  54   0.0000       0.124468         3.3869
  55   0.0000       0.129406         3.5213
  56   0.0000       0.135492         3.6869

MULLIKEN ATOMIC CHARGES
-----------------------
   0 C :   -0.212235
   1 H :    0.141094
   2 N :   -0.263872
   3 C :   -0.167763
   4 H :    0.160972
   5 H :    0.112855
   6 H :    0.115373
   7 C :   -0.250007
   8 H :    0.107824
   9 C :   -0.249904
  10 H :    0.153329
  11 H :    0.109011
  12 H :    0.103792
  13 C :   -0.139856
  14 C :   -0.290967
  15 H :    0.099160
  16 H :    0.100673
  17 H :    0.099426
  18 C :   -0.167281
  19 H :    0.153464
  20 H :    0.098036
  21 H :    0.072792
  22 C :   -0.182959
  23 H :    0.094309
  24 H :    0.106664
  25 C :   -0.178669
  26 C :    0.335861
  27 H :    0.113818
  28 H :    0.108306
  29 H :    0.268094
  30 H :    0.281252
  31 H :    0.295686
  32 O :   -0.566592
  33 O :   -0.561685
Sum of atomic charges:   -0.0000000

LOEWDIN ATOMIC CHARGES
----------------------
   0 C :   -0.271827
   1 H :    0.133329
   2 N :    0.135662
   3 C :   -0.270494
   4 H :    0.141650
   5 H :    0.136951
   6 H :    0.144873
   7 C :   -0.263794
   8 H :    0.137738
   9 C :   -0.270515
  10 H :    0.144781
  11 H :    0.134189
  12 H :    0.130639
  13 C :   -0.266492
  14 C :   -0.267282
  15 H :    0.135626
  16 H :    0.135301
  17 H :    0.134991
  18 C :   -0.268451
  19 H :    0.141077
  20 H :    0.133742
  21 H :    0.131366
  22 C :   -0.261938
  23 H :    0.132582
  24 H :    0.139802
  25 C :   -0.237457
  26 C :   -0.616155
  27 H :    0.138137
  28 H :    0.142954
  29 H :    0.188329
  30 H :    0.165106
  31 H :    0.179225
  32 O :   -0.075536
  33 O :   -0.068112

  Mayer bond orders larger than 0.100000
B(  0-C ,  1-H ) :   0.9768 B(  0-C ,  2-N ) :   0.9177 B(  0-C ,  3-C ) :   0.9670
B(  0-C ,  4-H ) :   0.9734 B(  2-N , 29-H ) :   0.8990 B(  2-N , 30-H ) :   0.7675
B(  2-N , 31-H ) :   0.7892 B(  3-C ,  5-H ) :   0.9737 B(  3-C ,  6-H ) :   0.9678
B(  3-C ,  7-C ) :   0.9631 B(  7-C ,  8-H ) :   0.9668 B(  7-C ,  9-C ) :   0.9262
B(  7-C , 10-H ) :   0.9882 B(  9-C , 11-H ) :   0.9672 B(  9-C , 12-H ) :   0.9957
B(  9-C , 13-C ) :   0.9662 B( 13-C , 14-C ) :   0.9777 B( 13-C , 15-H ) :   0.9797
B( 13-C , 16-H ) :   0.9796 B( 14-C , 17-H ) :   0.9708 B( 14-C , 18-C ) :   0.9195
B( 14-C , 19-H ) :   0.9855 B( 18-C , 20-H ) :   0.9711 B( 18-C , 21-H ) :   0.9791
B( 18-C , 22-C ) :   0.9977 B( 22-C , 23-H ) :   0.9773 B( 22-C , 24-H ) :   0.9684
B( 22-C , 25-C ) :   0.9626 B( 25-C , 26-C ) :   0.9461 B( 25-C , 27-H ) :   0.9876
B( 25-C , 28-H ) :   0.9555 B( 26-C , 32-O ) :   1.6121 B( 26-C , 33-O ) :   1.6688
B( 30-H , 32-O ) :   0.2141 B( 31-H , 33-O ) :   0.1707

Dispersion correction           -0.017663531
FINAL SINGLE POINT ENERGY      -599.017759437678

DIPOLE MOMENT
-------------
                                X             Y             Z
Electronic contribution:     -4.65999       4.88165       6.69284
Nuclear contribution   :      5.60885      -3.40606      -8.06960
                        -----------------------------------------
Total Dipole Moment    :      0.94886       1.47559      -1.37676
                        -----------------------------------------
Magnitude (a.u.)       :      2.23006
Magnitude (Debye)      :      5.66836

Rotational constants in cm-1:     0.028465     0.023505     0.015110
Rotational constants in MHz :   853.363165   704.655786   452.976312

                             ****ORCA TERMINATED NORMALLY****
TOTAL RUN TIME: 0 days 0 hours 1 minutes 22 seconds 352 msec
