                         Program Version 5.0.0 -  RELEASE  -
|  1> !wB97X-D3 RIJCOSX def2-TZVP def2/J TightSCF
|  2> *xyz 0 1
|  3> C         -2.79070       -0.78527        5.70281
|  4> C         -2.45380        0.05510        6.94145
|  5> C         -2.07842        1.48042        6.56410
|  6> H         -1.62558       -0.38216        7.49891
|  7> H         -3.32527        0.08775        7.59917
|  8> F         -0.90125        1.85816        6.82810
|  9> O         -2.93658        2.17731        5.96415
| 10> H         -1.94052       -0.82114        5.05412
| 11> H         -3.61590       -0.34261        5.18514
| 12> H         -3.05063       -1.77815        6.00536
| 13> *
| 14> %MaxCore 64000
| 15>
| 16> %pal nprocs 4
| 17> end
| 18>
| 19> %scf
| 20>   MaxIter 150
| 21> end
| 22>
| 23>
| 24>                          ****END OF INPUT****

CARTESIAN COORDINATES (ANGSTROEM)
---------------------------------
  C     -2.790700   -0.785270    5.702810
  C     -2.453800    0.055100    6.941450
  C     -2.078420    1.480420    6.564100
  H     -1.625580   -0.382160    7.498910
  H     -3.325270    0.087750    7.599170
  F     -0.901250    1.858160    6.828100
  O     -2.936580    2.177310    5.964150
  H     -1.940520   -0.821140    5.054120
  H     -3.615900   -0.342610    5.185140
  H     -3.050630   -1.778150    6.005360

 Total Charge           Charge          ....    0
 Multiplicity           Mult            ....    1
 Number of Electrons    NEL             ....   40
 Basis Dimension        Dim             ....  185

ORBITAL ENERGIES
----------------

  NO   OCC          E(Eh)            E(eV)
   0   2.0000     -24.851680      -676.2486
   1   2.0000     -19.234727      -523.4035
   2   2.0000     -10.454305      -284.4761
   3   2.0000     -10.307941      -280.4933
   4   2.0000     -10.280091      -279.7355
   5   2.0000      -1.428899       -38.8823
   6   2.0000      -1.146777       -31.2054
   7   2.0000      -0.919752       -25.0277
   8   2.0000      -0.801645       -21.8139
   9   2.0000      -0.745122       -20.2758
  10   2.0000      -0.650425       -17.6990
  11   2.0000      -0.636181       -17.3114
  12   2.0000      -0.612970       -16.6798
  13   2.0000      -0.566849       -15.4247
  14   2.0000      -0.534619       -14.5477
  15   2.0000      -0.497019       -13.5246
  16   2.0000      -0.476587       -12.9686
  17   2.0000      -0.470883       -12.8134
  18   2.0000      -0.441177       -12.0050
  19   2.0000      -0.389520       -10.5994
  20   0.0000       0.055010         1.4969
  21   0.0000       0.117291         3.1916
  22   0.0000       0.155385         4.2283
  23   0.0000       0.170039         4.6270
  24   0.0000       0.183389         4.9903

MULLIKEN ATOMIC CHARGES
-----------------------
   0 C :   -0.355435
   1 C :   -0.197750
   2 C :    0.399413
   3 H :    0.112270
   4 H :    0.131475
   5 F :   -0.111870
   6 O :   -0.363766
   7 H :    0.118831
   8 H :    0.142892
   9 H :    0.123941
Sum of atomic charges:    0.0000000

LOEWDIN ATOMIC CHARGES
----------------------
   0 C :   -0.283417
   1 C :   -0.257421
   2 C :   -0.481942
   3 H :    0.138734
   4 H :    0.154407
   5 F :    0.309479
   6 O :    0.056060
   7 H :    0.119536
   8 H :    0.125619
   9 H :    0.118945

  Mayer bond orders larger than 0.100000
B(  0-C ,  1-C ) :   0.9727 B(  0-C ,  7-H ) :   0.9757 B(  0-C ,  8-H ) :   0.9705
B(  0-C ,  9-H ) :   0.9740 B(  1-C ,  2-C ) :   0.9845 B(  1-C ,  3-H ) :   0.9654
B(  1-C ,  4-H ) :   0.9487 B(  2-C ,  5-F ) :   1.1517 B(  2-C ,  6-O ) :   2.0254

Dispersion correction           -0.001919396
FINAL SINGLE POINT ENERGY      -292.438601619293

DIPOLE MOMENT
-------------
                                X             Y             Z
Electronic contribution:      3.98111       7.42403       1.49746
Nuclear contribution   :     -3.69486      -8.49563      -1.04945
                        -----------------------------------------
Total Dipole Moment    :      0.28625      -1.07160       0.44800
                        -----------------------------------------
Magnitude (a.u.)       :      1.19623
Magnitude (Debye)      :      3.04058

Rotational constants in cm-1:     0.293725     0.129218     0.102393
Rotational constants in MHz :  8805.653529  3873.869810  3069.666716

                             ****ORCA TERMINATED NORMALLY****
TOTAL RUN TIME: 0 days 0 hours 0 minutes 31 seconds 91 msec
