                         Program Version 5.0.0 -  RELEASE  -
|  1> !wB97X-D3 RIJCOSX def2-TZVP def2/J TightSCF
|  2> *xyz 0 1
|  3> C         -0.69912        3.48945        3.75516
|  4> H         -0.96672        4.34901        3.14049
|  5> C         -1.08067        3.79296        5.15686
|  6> C          0.77696        3.13839        3.61741
|  7> H         -1.33146        2.65651        3.44632
|  8> H         -0.87449        4.76274        5.42734
|  9> H         -0.68079        3.13476        5.83900
| 10> H         -2.05755        3.53169        5.34620
| 11> H          0.99957        2.92898        2.59199
| 12> H          0.99576        2.27685        4.21303
| 13> H          1.37223        3.96279        3.95046
| 14> *
| 15> %MaxCore 64000
| 16>
| 17> %pal nprocs 4
| 18> end
| 19>
| 20> %scf
| 21>   MaxIter 150
| 22> end
| 23>
| 24>
| 25>                          ****END OF INPUT****

CARTESIAN COORDINATES (ANGSTROEM)
---------------------------------
  C     -0.699120    3.489450    3.755160
  H     -0.966720    4.349010    3.140490
  C     -1.080670    3.792960    5.156860
  C      0.776960    3.138390    3.617410
  H     -1.331460    2.656510    3.446320
  H     -0.874490    4.762740    5.427340
  H     -0.680790    3.134760    5.839000
  H     -2.057550    3.531690    5.346200
  H      0.999570    2.928980    2.591990
  H      0.995760    2.276850    4.213030
  H      1.372230    3.962790    3.950460

 Total Charge           Charge          ....    0
 Multiplicity           Mult            ....    1
 Number of Electrons    NEL             ....   26
 Basis Dimension        Dim             ....  141

ORBITAL ENERGIES
----------------

  NO   OCC          E(Eh)            E(eV)
   0   2.0000     -10.260406      -279.1998
   1   2.0000     -10.250067      -278.9185
   2   2.0000     -10.231098      -278.4023
   3   2.0000      -0.907889       -24.7049
   4   2.0000      -0.805376       -21.9154
   5   2.0000      -0.697813       -18.9885
   6   2.0000      -0.573925       -15.6173
   7   2.0000      -0.539445       -14.6791
   8   2.0000      -0.497275       -13.5315
   9   2.0000      -0.492726       -13.4078
  10   2.0000      -0.433218       -11.7885
  11   2.0000      -0.421584       -11.4719
  12   2.0000      -0.417648       -11.3648
  13   0.0000       0.121641         3.3100
  14   0.0000       0.165112         4.4929
  15   0.0000       0.170583         4.6418
  16   0.0000       0.175514         4.7760
  17   0.0000       0.198563         5.4032

MULLIKEN ATOMIC CHARGES
-----------------------
   0 C :   -0.148270
   1 H :    0.085767
   2 C :   -0.338558
   3 C :   -0.325164
   4 H :    0.083824
   5 H :    0.111963
   6 H :    0.101321
   7 H :    0.110325
   8 H :    0.109531
   9 H :    0.105459
  10 H :    0.103800
Sum of atomic charges:    0.0000000

LOEWDIN ATOMIC CHARGES
----------------------
   0 C :   -0.320855
   1 H :    0.130895
   2 C :   -0.309390
   3 C :   -0.303770
   4 H :    0.131830
   5 H :    0.106959
   6 H :    0.110810
   7 H :    0.111449
   8 H :    0.113209
   9 H :    0.114037
  10 H :    0.114825

  Mayer bond orders larger than 0.100000
B(  0-C ,  1-H ) :   0.9771 B(  0-C ,  2-C ) :   0.9713 B(  0-C ,  3-C ) :   0.9814
B(  0-C ,  4-H ) :   0.9815 B(  2-C ,  5-H ) :   0.9790 B(  2-C ,  6-H ) :   0.9829
B(  2-C ,  7-H ) :   0.9865 B(  3-C ,  8-H ) :   0.9824 B(  3-C ,  9-H ) :   0.9808
B(  3-C , 10-H ) :   0.9780

Dispersion correction           -0.001483159
FINAL SINGLE POINT ENERGY      -119.134439344804

DIPOLE MOMENT
-------------
                                X             Y             Z
Electronic contribution:     -0.14509       0.11960      -0.39599
Nuclear contribution   :      0.10024      -0.14218       0.41628
                        -----------------------------------------
Total Dipole Moment    :     -0.04485      -0.02259       0.02030
                        -----------------------------------------
Magnitude (a.u.)       :      0.05416
Magnitude (Debye)      :      0.13766

Rotational constants in cm-1:     1.024179     0.291605     0.259489
Rotational constants in MHz : 30704.103454  8742.106283  7779.285909

                             ****ORCA TERMINATED NORMALLY****
TOTAL RUN TIME: 0 days 0 hours 0 minutes 17 seconds 825 msec
