                         Program Version 5.0.0 -  RELEASE  -
|  1> !wB97X-D3 RIJCOSX def2-TZVP def2/J TightSCF
|  2> *xyz 0 1
|  3> C         -2.79070       -0.78527        5.70281
|  4> C         -2.45380        0.05510        6.94145
|  5> C         -2.07842        1.48042        6.56410
|  6> H         -1.62558       -0.38216        7.49891
|  7> H         -3.32527        0.08775        7.59917
|  8> O         -0.90125        1.85816        6.82810
|  9> F         -2.93658        2.17731        5.96415
| 10> H         -1.94052       -0.82114        5.05412
| 11> H         -3.61590       -0.34261        5.18514
| 12> H         -3.05063       -1.77815        6.00536
| 13> *
| 14> %MaxCore 64000
| 15>
| 16> %pal nprocs 4
| 17> end
| 18>
| 19> %scf
| 20>   MaxIter 150
| 21> end
| 22>
| 23>
| 24>                          ****END OF INPUT****

CARTESIAN COORDINATES (ANGSTROEM)
---------------------------------
  C     -2.790700   -0.785270    5.702810
  C     -2.453800    0.055100    6.941450
  C     -2.078420    1.480420    6.564100
  H     -1.625580   -0.382160    7.498910
  H     -3.325270    0.087750    7.599170
  O     -0.901250    1.858160    6.828100
  F     -2.936580    2.177310    5.964150
  H     -1.940520   -0.821140    5.054120
  H     -3.615900   -0.342610    5.185140
  H     -3.050630   -1.778150    6.005360

 Total Charge           Charge          ....    0
 Multiplicity           Mult            ....    1
 Number of Electrons    NEL             ....   40
 Basis Dimension        Dim             ....  185

ORBITAL ENERGIES
----------------

  NO   OCC          E(Eh)            E(eV)
   0   2.0000     -24.854977      -676.3383
   1   2.0000     -19.232926      -523.3545
   2   2.0000     -10.454055      -284.4693
   3   2.0000     -10.307522      -280.4819
   4   2.0000     -10.284166      -279.8464
   5   2.0000      -1.434234       -39.0275
   6   2.0000      -1.141844       -31.0712
   7   2.0000      -0.922925       -25.1141
   8   2.0000      -0.799370       -21.7520
   9   2.0000      -0.752169       -20.4676
  10   2.0000      -0.654903       -17.8208
  11   2.0000      -0.642954       -17.4957
  12   2.0000      -0.606216       -16.4960
  13   2.0000      -0.567326       -15.4377
  14   2.0000      -0.535712       -14.5775
  15   2.0000      -0.499814       -13.6006
  16   2.0000      -0.480254       -13.0684
  17   2.0000      -0.473580       -12.8868
  18   2.0000      -0.442390       -12.0381
  19   2.0000      -0.383216       -10.4278
  20   0.0000       0.058008         1.5785
  21   0.0000       0.113714         3.0943
  22   0.0000       0.154028         4.1913
  23   0.0000       0.172525         4.6947
  24   0.0000       0.187603         5.1049

MULLIKEN ATOMIC CHARGES
-----------------------
   0 C :   -0.356830
   1 C :   -0.195879
   2 C :    0.390117
   3 H :    0.138443
   4 H :    0.116878
   5 O :   -0.364555
   6 F :   -0.110234
   7 H :    0.130063
   8 H :    0.124018
   9 H :    0.127979
Sum of atomic charges:   -0.0000000

LOEWDIN ATOMIC CHARGES
----------------------
   0 C :   -0.289322
   1 C :   -0.254033
   2 C :   -0.485242
   3 H :    0.151987
   4 H :    0.146423
   5 O :    0.046052
   6 F :    0.321786
   7 H :    0.122140
   8 H :    0.119549
   9 H :    0.120659

  Mayer bond orders larger than 0.100000
B(  0-C ,  1-C ) :   0.9638 B(  0-C ,  7-H ) :   0.9729 B(  0-C ,  8-H ) :   0.9736
B(  0-C ,  9-H ) :   0.9739 B(  1-C ,  2-C ) :   1.0016 B(  1-C ,  3-H ) :   0.9672
B(  1-C ,  4-H ) :   0.9474 B(  2-C ,  5-O ) :   2.0338 B(  2-C ,  6-F ) :   1.1475

Dispersion correction           -0.001918098
FINAL SINGLE POINT ENERGY      -292.436144765206

DIPOLE MOMENT
-------------
                                X             Y             Z
Electronic contribution:      0.56773       7.93696       0.05279
Nuclear contribution   :     -1.47571      -8.84360      -0.10748
                        -----------------------------------------
Total Dipole Moment    :     -0.90798      -0.90665      -0.05469
                        -----------------------------------------
Magnitude (a.u.)       :      1.28430
Magnitude (Debye)      :      3.26443

Rotational constants in cm-1:     0.283081     0.133379     0.103386
Rotational constants in MHz :  8486.545774  3998.599544  3099.448040

                             ****ORCA TERMINATED NORMALLY****
TOTAL RUN TIME: 0 days 0 hours 0 minutes 32 seconds 666 msec
