                         Program Version 5.0.0 -  RELEASE  -
|  1> !wB97X-D3 RIJCOSX def2-SVPD def2/J TightSCF
|  2> *xyz 1 1
|  3> C          4.36645       -0.13321       -1.41606
|  4> C          4.50829       -0.93187       -2.72425
|  5> C          3.05650       -0.32080       -0.70738
|  6> N          2.38983        0.71129       -0.24391
|  7> N          2.51600       -1.50772       -0.55023
|  8> H          2.96768       -2.32291       -0.95631
|  9> H          1.54987       -1.49063       -0.24988
| 10> H          2.74307        1.64947       -0.41280
| 11> H          1.44036        0.50278        0.03703
| 12> H          4.48784        0.93300       -1.61157
| 13> H          5.16967       -0.41443       -0.72982
| 14> H          5.46700       -0.73824       -3.15818
| 15> H          3.74074       -0.63528       -3.40821
| 16> H          4.41574       -1.97727       -2.51573
| 17> *
| 18>
| 19> %MaxCore 64000
| 20>
| 21> %pal nprocs 18
| 22> end
| 23>
| 24> %scf
| 25>   MaxIter 150
| 26> end
| 27>
| 28>
| 29>                          ****END OF INPUT****

CARTESIAN COORDINATES (ANGSTROEM)
---------------------------------
  C      4.366450   -0.133210   -1.416060
  C      4.508290   -0.931870   -2.724250
  C      3.056500   -0.320800   -0.707380
  N      2.389830    0.711290   -0.243910
  N      2.516000   -1.507720   -0.550230
  H      2.967680   -2.322910   -0.956310
  H      1.549870   -1.490630   -0.249880
  H      2.743070    1.649470   -0.412800
  H      1.440360    0.502780    0.037030
  H      4.487840    0.933000   -1.611570
  H      5.169670   -0.414430   -0.729820
  H      5.467000   -0.738240   -3.158180
  H      3.740740   -0.635280   -3.408210
  H      4.415740   -1.977270   -2.515730

 Total Charge           Charge          ....    1
 Multiplicity           Mult            ....    1
 Number of Electrons    NEL             ....   40
 Basis Dimension        Dim             ....  172

ORBITAL ENERGIES
----------------

  NO   OCC          E(Eh)            E(eV)
   0   2.0000     -14.685482      -399.6123
   1   2.0000     -14.684325      -399.5808
   2   2.0000     -10.616391      -288.8867
   3   2.0000     -10.492896      -285.5262
   4   2.0000     -10.449918      -284.3567
   5   2.0000      -1.325058       -36.0567
   6   2.0000      -1.215810       -33.0839
   7   2.0000      -1.082962       -29.4689
   8   2.0000      -0.968389       -26.3512
   9   2.0000      -0.926363       -25.2076
  10   2.0000      -0.875106       -23.8128
  11   2.0000      -0.860668       -23.4200
  12   2.0000      -0.805765       -21.9260
  13   2.0000      -0.766155       -20.8481
  14   2.0000      -0.729242       -19.8437
  15   2.0000      -0.703546       -19.1444
  16   2.0000      -0.652198       -17.7472
  17   2.0000      -0.637922       -17.3587
  18   2.0000      -0.623008       -16.9529
  19   2.0000      -0.589293       -16.0355
  20   0.0000      -0.133074        -3.6211
  21   0.0000      -0.084389        -2.2963
  22   0.0000      -0.039927        -1.0865
  23   0.0000      -0.038411        -1.0452
  24   0.0000      -0.007464        -0.2031

MULLIKEN ATOMIC CHARGES
-----------------------
   0 C :   -0.353861
   1 C :    0.615435
   2 C :    0.630686
   3 N :   -0.023447
   4 N :    0.031876
   5 H :    0.033924
   6 H :   -0.065105
   7 H :    0.065313
   8 H :   -0.029568
   9 H :    0.106021
  10 H :    0.073227
  11 H :    0.036971
  12 H :   -0.024803
  13 H :   -0.096670
Sum of atomic charges:    1.0000000

LOEWDIN ATOMIC CHARGES
----------------------
   0 C :    0.017180
   1 C :    0.165403
   2 C :   -0.033551
   3 N :    0.272715
   4 N :    0.280763
   5 H :    0.050525
   6 H :    0.046778
   7 H :    0.060969
   8 H :    0.046075
   9 H :    0.037573
  10 H :    0.057921
  11 H :    0.010678
  12 H :    0.003811
  13 H :   -0.016840

  Mayer bond orders larger than 0.100000
B(  0-C ,  1-C ) :   1.3002 B(  0-C ,  2-C ) :   1.1521 B(  0-C ,  9-H ) :   0.8862
B(  0-C , 10-H ) :   0.8603 B(  0-C , 11-H ) :   0.1554 B(  0-C , 12-H ) :   0.1708
B(  0-C , 13-H ) :   0.1683 B(  1-C ,  9-H ) :   0.1104 B(  1-C , 11-H ) :   0.8486
B(  1-C , 12-H ) :   0.8095 B(  1-C , 13-H ) :   0.8487 B(  2-C ,  3-N ) :   1.1015
B(  2-C ,  4-N ) :   1.1107 B(  2-C ,  6-H ) :  -0.1441 B(  2-C ,  9-H ) :   0.1290
B(  2-C , 10-H ) :   0.1271 B(  3-N ,  4-N ) :   0.1915 B(  3-N ,  7-H ) :   1.0902
B(  3-N ,  8-H ) :   1.1965 B(  4-N ,  5-H ) :   1.0601 B(  4-N ,  6-H ) :   1.2570
B(  5-H ,  6-H ) :  -0.1706 B(  7-H ,  8-H ) :  -0.1380

Dispersion correction           -0.002897595
FINAL SINGLE POINT ENERGY      -228.814755765927

DIPOLE MOMENT
-------------
                                X             Y             Z
Electronic contribution:     -2.67039       0.62810       3.12024
Nuclear contribution   :      1.78847      -0.48174      -2.67127
                        -----------------------------------------
Total Dipole Moment    :     -0.88193       0.14636       0.44897
                        -----------------------------------------
Magnitude (a.u.)       :      1.00039
Magnitude (Debye)      :      2.54280

Rotational constants in cm-1:     0.286883     0.123210     0.094446
Rotational constants in MHz :  8600.540572  3693.747366  2831.415242

                             ****ORCA TERMINATED NORMALLY****
TOTAL RUN TIME: 0 days 0 hours 0 minutes 8 seconds 950 msec
