                         Program Version 5.0.0 -  RELEASE  -
|  1> !wB97X-D3 RIJCOSX def2-SVPD def2/J TightSCF
|  2> *xyz 0 1
|  3> C         -0.90349       -0.87394       -1.98739
|  4> C         -0.96015       -0.52236       -0.48987
|  5> H         -1.69039       -1.20813       -0.02168
|  6> H         -1.41449        0.48633       -0.40668
|  7> F          0.26170       -0.58031        0.13861
|  8> H         -1.88568       -0.80774       -2.40670
|  9> H         -0.53143       -1.87013       -2.10605
| 10> H         -0.25399       -0.18836       -2.49039
| 11> *
| 12>
| 13> %MaxCore 64000
| 14>
| 15> %pal nprocs 18
| 16> end
| 17>
| 18> %scf
| 19>   MaxIter 150
| 20> end
| 21>
| 22>
| 23>                          ****END OF INPUT****

CARTESIAN COORDINATES (ANGSTROEM)
---------------------------------
  C     -0.903490   -0.873940   -1.987390
  C     -0.960150   -0.522360   -0.489870
  H     -1.690390   -1.208130   -0.021680
  H     -1.414490    0.486330   -0.406680
  F      0.261700   -0.580310    0.138610
  H     -1.885680   -0.807740   -2.406700
  H     -0.531430   -1.870130   -2.106050
  H     -0.253990   -0.188360   -2.490390

 Total Charge           Charge          ....    0
 Multiplicity           Mult            ....    1
 Number of Electrons    NEL             ....   26
 Basis Dimension        Dim             ....  103

ORBITAL ENERGIES
----------------

  NO   OCC          E(Eh)            E(eV)
   0   2.0000     -24.789527      -674.5573
   1   2.0000     -10.371894      -282.2336
   2   2.0000     -10.287411      -279.9347
   3   2.0000      -1.297434       -35.3050
   4   2.0000      -0.875853       -23.8332
   5   2.0000      -0.738829       -20.1045
   6   2.0000      -0.612105       -16.6562
   7   2.0000      -0.601499       -16.3676
   8   2.0000      -0.562063       -15.2945
   9   2.0000      -0.506766       -13.7898
  10   2.0000      -0.500401       -13.6166
  11   2.0000      -0.435442       -11.8490
  12   2.0000      -0.429303       -11.6819
  13   0.0000       0.093746         2.5510
  14   0.0000       0.124595         3.3904
  15   0.0000       0.155216         4.2236
  16   0.0000       0.159899         4.3511
  17   0.0000       0.186032         5.0622

MULLIKEN ATOMIC CHARGES
-----------------------
   0 C :    0.225277
   1 C :    0.383304
   2 H :   -0.042074
   3 H :   -0.034870
   4 F :   -0.465026
   5 H :   -0.005198
   6 H :   -0.030411
   7 H :   -0.031001
Sum of atomic charges:    0.0000000

LOEWDIN ATOMIC CHARGES
----------------------
   0 C :    0.130728
   1 C :    0.071008
   2 H :    0.029683
   3 H :    0.031787
   4 F :   -0.225580
   5 H :   -0.011266
   6 H :   -0.013146
   7 H :   -0.013214

  Mayer bond orders larger than 0.100000
B(  0-C ,  1-C ) :   1.3142 B(  0-C ,  5-H ) :   0.8757 B(  0-C ,  6-H ) :   0.9092
B(  0-C ,  7-H ) :   0.9093 B(  1-C ,  2-H ) :   0.9584 B(  1-C ,  3-H ) :   0.9580
B(  1-C ,  4-F ) :   0.7336 B(  1-C ,  5-H ) :   0.1063 B(  1-C ,  6-H ) :   0.1212
B(  1-C ,  7-H ) :   0.1214

Dispersion correction           -0.000868780
FINAL SINGLE POINT ENERGY      -178.888722259662

DIPOLE MOMENT
-------------
                                X             Y             Z
Electronic contribution:      3.19896       0.37651       3.96708
Nuclear contribution   :     -3.84149      -0.36812      -4.38946
                        -----------------------------------------
Total Dipole Moment    :     -0.64253       0.00839      -0.42238
                        -----------------------------------------
Magnitude (a.u.)       :      0.76897
Magnitude (Debye)      :      1.95457

Rotational constants in cm-1:     1.270659     0.299196     0.265842
Rotational constants in MHz : 38093.410361  8969.665806  7969.741481

                             ****ORCA TERMINATED NORMALLY****
TOTAL RUN TIME: 0 days 0 hours 0 minutes 4 seconds 260 msec
