                         Program Version 5.0.0 -  RELEASE  -
|  1> !wB97X-D3 RIJCOSX def2-SVPD def2/J TightSCF
|  2> *xyz 0 1
|  3> C          4.36645       -0.13321       -1.41606
|  4> C          4.50829       -0.93187       -2.72425
|  5> C          3.05650       -0.32080       -0.70738
|  6> C          2.38983        0.71129       -0.24391
|  7> N          2.51600       -1.50772       -0.55023
|  8> H          2.96768       -2.32291       -0.95631
|  9> H          1.54987       -1.49063       -0.24988
| 10> H          2.74307        1.64947       -0.41280
| 11> H          1.44036        0.50278        0.03703
| 12> H          4.48784        0.93300       -1.61157
| 13> H          5.16967       -0.41443       -0.72982
| 14> H          5.46700       -0.73824       -3.15818
| 15> H          3.74074       -0.63528       -3.40821
| 16> H          4.41574       -1.97727       -2.51573
| 17> *
| 18>
| 19> %MaxCore 64000
| 20>
| 21> %pal nprocs 18
| 22> end
| 23>
| 24> %scf
| 25>   MaxIter 150
| 26> end
| 27>
| 28>
| 29>                          ****END OF INPUT****

CARTESIAN COORDINATES (ANGSTROEM)
---------------------------------
  C      4.366450   -0.133210   -1.416060
  C      4.508290   -0.931870   -2.724250
  C      3.056500   -0.320800   -0.707380
  C      2.389830    0.711290   -0.243910
  N      2.516000   -1.507720   -0.550230
  H      2.967680   -2.322910   -0.956310
  H      1.549870   -1.490630   -0.249880
  H      2.743070    1.649470   -0.412800
  H      1.440360    0.502780    0.037030
  H      4.487840    0.933000   -1.611570
  H      5.169670   -0.414430   -0.729820
  H      5.467000   -0.738240   -3.158180
  H      3.740740   -0.635280   -3.408210
  H      4.415740   -1.977270   -2.515730

 Total Charge           Charge          ....    0
 Multiplicity           Mult            ....    1
 Number of Electrons    NEL             ....   40
 Basis Dimension        Dim             ....  172

ORBITAL ENERGIES
----------------

  NO   OCC          E(Eh)            E(eV)
   0   2.0000     -14.436075      -392.8256
   1   2.0000     -10.308343      -280.5043
   2   2.0000     -10.291875      -280.0562
   3   2.0000     -10.282734      -279.8074
   4   2.0000     -10.219321      -278.0819
   5   2.0000      -1.043047       -28.3827
   6   2.0000      -0.888769       -24.1846
   7   2.0000      -0.831590       -22.6287
   8   2.0000      -0.743331       -20.2271
   9   2.0000      -0.666563       -18.1381
  10   2.0000      -0.637638       -17.3510
  11   2.0000      -0.572767       -15.5858
  12   2.0000      -0.541273       -14.7288
  13   2.0000      -0.530857       -14.4454
  14   2.0000      -0.491370       -13.3709
  15   2.0000      -0.479459       -13.0467
  16   2.0000      -0.453411       -12.3379
  17   2.0000      -0.439943       -11.9715
  18   2.0000      -0.421997       -11.4831
  19   2.0000      -0.277847        -7.5606
  20   0.0000       0.088064         2.3963
  21   0.0000       0.114949         3.1279
  22   0.0000       0.121421         3.3040
  23   0.0000       0.132901         3.6164
  24   0.0000       0.143536         3.9058

MULLIKEN ATOMIC CHARGES
-----------------------
   0 C :   -0.168016
   1 C :    0.662823
   2 C :   -0.225080
   3 C :    0.416274
   4 N :    0.236891
   5 H :   -0.143324
   6 H :   -0.109360
   7 H :   -0.150866
   8 H :   -0.382756
   9 H :    0.125010
  10 H :   -0.048238
  11 H :   -0.037299
  12 H :   -0.035953
  13 H :   -0.140105
Sum of atomic charges:    0.0000000

LOEWDIN ATOMIC CHARGES
----------------------
   0 C :   -0.024631
   1 C :    0.127010
   2 C :   -0.262312
   3 C :    0.162985
   4 N :    0.163423
   5 H :   -0.002224
   6 H :    0.007294
   7 H :   -0.076755
   8 H :   -0.083883
   9 H :    0.021740
  10 H :    0.027046
  11 H :   -0.016229
  12 H :   -0.009969
  13 H :   -0.033496

  Mayer bond orders larger than 0.100000
B(  0-C ,  1-C ) :   1.2638 B(  0-C ,  2-C ) :   1.1438 B(  0-C ,  9-H ) :   0.8829
B(  0-C , 10-H ) :   0.8337 B(  0-C , 11-H ) :   0.1977 B(  0-C , 12-H ) :   0.1795
B(  0-C , 13-H ) :   0.1963 B(  1-C ,  9-H ) :   0.1006 B(  1-C , 11-H ) :   0.8153
B(  1-C , 12-H ) :   0.8047 B(  1-C , 13-H ) :   0.8259 B(  2-C ,  3-C ) :   1.8740
B(  2-C ,  4-N ) :   1.2423 B(  2-C ,  8-H ) :   0.2531 B(  2-C , 10-H ) :   0.2055
B(  3-C ,  4-N ) :   0.2406 B(  3-C ,  7-H ) :   0.9936 B(  3-C ,  8-H ) :   0.6855
B(  4-N ,  5-H ) :   1.0996 B(  4-N ,  6-H ) :   1.1523 B(  5-H ,  6-H ) :  -0.1399

Dispersion correction           -0.002911663
FINAL SINGLE POINT ENERGY      -212.356641085518

DIPOLE MOMENT
-------------
                                X             Y             Z
Electronic contribution:     -1.48738      -0.42850       2.06479
Nuclear contribution   :      1.56827      -0.21459      -2.46657
                        -----------------------------------------
Total Dipole Moment    :      0.08089      -0.64309      -0.40179
                        -----------------------------------------
Magnitude (a.u.)       :      0.76259
Magnitude (Debye)      :      1.93834

Rotational constants in cm-1:     0.294070     0.127722     0.097792
Rotational constants in MHz :  8815.983970  3829.010547  2931.715816

                             ****ORCA TERMINATED NORMALLY****
TOTAL RUN TIME: 0 days 0 hours 0 minutes 9 seconds 683 msec
