                         Program Version 5.0.0 -  RELEASE  -
|  1> !wB97X-D3 RIJCOSX def2-SVPD def2/J TightSCF
|  2> *xyz 0 1
|  3> C          4.36645       -0.13321       -1.41606
|  4> C          4.50829       -0.93187       -2.72425
|  5> C          3.05650       -0.32080       -0.70738
|  6> N          2.38983        0.71129       -0.24391
|  7> C          2.51600       -1.50772       -0.55023
|  8> H          2.96768       -2.32291       -0.95631
|  9> H          1.54987       -1.49063       -0.24988
| 10> H          2.74307        1.64947       -0.41280
| 11> H          1.44036        0.50278        0.03703
| 12> H          4.48784        0.93300       -1.61157
| 13> H          5.16967       -0.41443       -0.72982
| 14> H          5.46700       -0.73824       -3.15818
| 15> H          3.74074       -0.63528       -3.40821
| 16> H          4.41574       -1.97727       -2.51573
| 17> *
| 18>
| 19> %MaxCore 64000
| 20>
| 21> %pal nprocs 18
| 22> end
| 23>
| 24> %scf
| 25>   MaxIter 150
| 26> end
| 27>
| 28>
| 29>                          ****END OF INPUT****

CARTESIAN COORDINATES (ANGSTROEM)
---------------------------------
  C      4.366450   -0.133210   -1.416060
  C      4.508290   -0.931870   -2.724250
  C      3.056500   -0.320800   -0.707380
  N      2.389830    0.711290   -0.243910
  C      2.516000   -1.507720   -0.550230
  H      2.967680   -2.322910   -0.956310
  H      1.549870   -1.490630   -0.249880
  H      2.743070    1.649470   -0.412800
  H      1.440360    0.502780    0.037030
  H      4.487840    0.933000   -1.611570
  H      5.169670   -0.414430   -0.729820
  H      5.467000   -0.738240   -3.158180
  H      3.740740   -0.635280   -3.408210
  H      4.415740   -1.977270   -2.515730

 Total Charge           Charge          ....    0
 Multiplicity           Mult            ....    1
 Number of Electrons    NEL             ....   40
 Basis Dimension        Dim             ....  172

ORBITAL ENERGIES
----------------

  NO   OCC          E(Eh)            E(eV)
   0   2.0000     -14.436681      -392.8421
   1   2.0000     -10.308561      -280.5102
   2   2.0000     -10.293162      -280.0912
   3   2.0000     -10.276344      -279.6335
   4   2.0000     -10.217826      -278.0412
   5   2.0000      -1.043383       -28.3919
   6   2.0000      -0.890482       -24.2312
   7   2.0000      -0.820167       -22.3179
   8   2.0000      -0.753234       -20.4965
   9   2.0000      -0.656962       -17.8769
  10   2.0000      -0.634736       -17.2720
  11   2.0000      -0.580828       -15.8051
  12   2.0000      -0.552794       -15.0423
  13   2.0000      -0.506830       -13.7915
  14   2.0000      -0.488863       -13.3026
  15   2.0000      -0.478833       -13.0297
  16   2.0000      -0.454649       -12.3716
  17   2.0000      -0.437178       -11.8962
  18   2.0000      -0.423651       -11.5281
  19   2.0000      -0.276372        -7.5205
  20   0.0000       0.092245         2.5101
  21   0.0000       0.110795         3.0149
  22   0.0000       0.122947         3.3455
  23   0.0000       0.128037         3.4841
  24   0.0000       0.148022         4.0279

MULLIKEN ATOMIC CHARGES
-----------------------
   0 C :   -0.068459
   1 C :    0.647530
   2 C :   -0.089629
   3 N :    0.145548
   4 C :    0.411813
   5 H :   -0.219506
   6 H :   -0.423030
   7 H :   -0.094943
   8 H :   -0.056021
   9 H :   -0.026045
  10 H :   -0.040306
  11 H :   -0.008037
  12 H :   -0.062269
  13 H :   -0.116646
Sum of atomic charges:    0.0000000

LOEWDIN ATOMIC CHARGES
----------------------
   0 C :   -0.026026
   1 C :    0.131143
   2 C :   -0.256028
   3 N :    0.154684
   4 C :    0.167682
   5 H :   -0.083410
   6 H :   -0.083801
   7 H :    0.005141
   8 H :    0.006622
   9 H :    0.010275
  10 H :    0.029147
  11 H :   -0.017965
  12 H :   -0.010661
  13 H :   -0.026802

  Mayer bond orders larger than 0.100000
B(  0-C ,  1-C ) :   1.2844 B(  0-C ,  2-C ) :   1.0824 B(  0-C ,  9-H ) :   0.8119
B(  0-C , 10-H ) :   0.8653 B(  0-C , 11-H ) :   0.1709 B(  0-C , 12-H ) :   0.1797
B(  0-C , 13-H ) :   0.1744 B(  1-C , 11-H ) :   0.8136 B(  1-C , 12-H ) :   0.8206
B(  1-C , 13-H ) :   0.8506 B(  2-C ,  3-N ) :   1.1526 B(  2-C ,  4-C ) :   1.8430
B(  2-C ,  5-H ) :   0.1182 B(  2-C ,  6-H ) :   0.2140 B(  2-C ,  9-H ) :   0.1907
B(  2-C , 10-H ) :   0.1532 B(  3-N ,  4-C ) :   0.2572 B(  3-N ,  7-H ) :   1.1138
B(  3-N ,  8-H ) :   1.1154 B(  4-C ,  5-H ) :   0.8515 B(  4-C ,  6-H ) :   0.7985
B(  5-H ,  6-H ) :  -0.1055 B(  7-H ,  8-H ) :  -0.1151

Dispersion correction           -0.002887014
FINAL SINGLE POINT ENERGY      -212.355395168645

DIPOLE MOMENT
-------------
                                X             Y             Z
Electronic contribution:     -1.59932       1.45760       2.34107
Nuclear contribution   :      1.59749      -0.72853      -2.53752
                        -----------------------------------------
Total Dipole Moment    :     -0.00183       0.72907      -0.19645
                        -----------------------------------------
Magnitude (a.u.)       :      0.75508
Magnitude (Debye)      :      1.91925

Rotational constants in cm-1:     0.304597     0.124127     0.096828
Rotational constants in MHz :  9131.600925  3721.227051  2902.830760

                             ****ORCA TERMINATED NORMALLY****
TOTAL RUN TIME: 0 days 0 hours 0 minutes 10 seconds 106 msec
