                         Program Version 5.0.0 -  RELEASE  -
|  1> !PBE0 D3BJ RIJCOSX def2-TZVP def2/J TightSCF
|  2> *xyz -1 1
|  3> C         -0.10608        1.76991       -4.08984
|  4> C         -0.25875        1.00432       -5.40983
|  5> C          0.39596       -0.37070       -5.33994
|  6> H          0.23915        1.56939       -6.20125
|  7> H         -1.30936        0.88869       -5.68245
|  8> O         -0.32633       -1.39040       -5.49128
|  9> O          1.61941       -0.40073       -5.03683
| 10> H         -0.57627        2.72718       -4.17630
| 11> H          0.93321        1.90140       -3.87192
| 12> H         -0.56868        1.21534       -3.30031
| 13> *
| 14> %MaxCore 64000
| 15>
| 16> %pal nprocs 4
| 17> end
| 18>
| 19> %scf
| 20>   MaxIter 150
| 21> end
| 22>
| 23>
| 24>                          ****END OF INPUT****

CARTESIAN COORDINATES (ANGSTROEM)
---------------------------------
  C     -0.106080    1.769910   -4.089840
  C     -0.258750    1.004320   -5.409830
  C      0.395960   -0.370700   -5.339940
  H      0.239150    1.569390   -6.201250
  H     -1.309360    0.888690   -5.682450
  O     -0.326330   -1.390400   -5.491280
  O      1.619410   -0.400730   -5.036830
  H     -0.576270    2.727180   -4.176300
  H      0.933210    1.901400   -3.871920
  H     -0.568680    1.215340   -3.300310

 Total Charge           Charge          ....   -1
 Multiplicity           Mult            ....    1
 Number of Electrons    NEL             ....   40
 Basis Dimension        Dim             ....  185

ORBITAL ENERGIES
----------------

  NO   OCC          E(Eh)            E(eV)
   0   2.0000     -18.927491      -515.0432
   1   2.0000     -18.926336      -515.0118
   2   2.0000     -10.090956      -274.5889
   3   2.0000     -10.052492      -273.5422
   4   2.0000     -10.041761      -273.2502
   5   2.0000      -0.836515       -22.7627
   6   2.0000      -0.741726       -20.1834
   7   2.0000      -0.623952       -16.9786
   8   2.0000      -0.489575       -13.3220
   9   2.0000      -0.331105        -9.0098
  10   2.0000      -0.302007        -8.2180
  11   2.0000      -0.269076        -7.3219
  12   2.0000      -0.237230        -6.4554
  13   2.0000      -0.220930        -6.0118
  14   2.0000      -0.214653        -5.8410
  15   2.0000      -0.182872        -4.9762
  16   2.0000      -0.165785        -4.5112
  17   2.0000      -0.049699        -1.3524
  18   2.0000      -0.044679        -1.2158
  19   2.0000      -0.029616        -0.8059
  20   0.0000       0.194062         5.2807
  21   0.0000       0.234842         6.3904
  22   0.0000       0.252332         6.8663
  23   0.0000       0.258477         7.0335
  24   0.0000       0.269774         7.3409

MULLIKEN ATOMIC CHARGES
-----------------------
   0 C :   -0.345712
   1 C :   -0.130236
   2 C :    0.209799
   3 H :    0.039204
   4 H :    0.044175
   5 O :   -0.536386
   6 O :   -0.543503
   7 H :    0.062978
   8 H :    0.104864
   9 H :    0.094817
Sum of atomic charges:   -1.0000000

LOEWDIN ATOMIC CHARGES
----------------------
   0 C :   -0.327374
   1 C :   -0.294445
   2 C :   -0.700213
   3 H :    0.122566
   4 H :    0.118150
   5 O :   -0.116381
   6 O :   -0.119280
   7 H :    0.093858
   8 H :    0.113143
   9 H :    0.109976

  Mayer bond orders larger than 0.100000
B(  0-C ,  1-C ) :   0.9818 B(  0-C ,  7-H ) :   0.9673 B(  0-C ,  8-H ) :   0.9674
B(  0-C ,  9-H ) :   0.9804 B(  1-C ,  2-C ) :   0.9547 B(  1-C ,  3-H ) :   0.9477
B(  1-C ,  4-H ) :   0.9454 B(  2-C ,  5-O ) :   1.8788 B(  2-C ,  6-O ) :   1.8286

Dispersion correction           -0.005470535
FINAL SINGLE POINT ENERGY      -267.641570622700

DIPOLE MOMENT
-------------
                                X             Y             Z
Electronic contribution:      1.77057      -5.39438      -1.70735
Nuclear contribution   :     -2.46071       7.20791       1.95694
                        -----------------------------------------
Total Dipole Moment    :     -0.69015       1.81354       0.24958
                        -----------------------------------------
Magnitude (a.u.)       :      1.95640
Magnitude (Debye)      :      4.97278

Rotational constants in cm-1:     0.309435     0.135317     0.107436
Rotational constants in MHz :  9276.637721  4056.700783  3220.846587

                             ****ORCA TERMINATED NORMALLY****
TOTAL RUN TIME: 0 days 0 hours 0 minutes 20 seconds 506 msec
