                         Program Version 5.0.0 -  RELEASE  -
|  1> !PBE0 D3BJ RIJCOSX def2-TZVP def2/J TightSCF
|  2> *xyz 1 1
|  3> C          0.81607       -2.10149       -2.18655
|  4> H          1.69623       -2.36869       -1.60046
|  5> N          1.10055       -2.46749       -3.59927
|  6> C          0.51624       -0.61363       -2.03937
|  7> H         -0.02007       -2.71285       -1.84084
|  8> H          1.70061       -1.75723       -4.07838
|  9> H          0.29386       -2.35977       -4.25632
| 10> H          1.50132       -3.42848       -3.69491
| 11> H         -0.34841       -0.36504       -2.61858
| 12> H          1.35358       -0.04503       -2.38643
| 13> H          0.33317       -0.38682       -1.00984
| 14> *
| 15> %MaxCore 64000
| 16>
| 17> %pal nprocs 4
| 18> end
| 19>
| 20> %scf
| 21>   MaxIter 150
| 22> end
| 23>
| 24>
| 25>                          ****END OF INPUT****

CARTESIAN COORDINATES (ANGSTROEM)
---------------------------------
  C      0.816070   -2.101490   -2.186550
  H      1.696230   -2.368690   -1.600460
  N      1.100550   -2.467490   -3.599270
  C      0.516240   -0.613630   -2.039370
  H     -0.020070   -2.712850   -1.840840
  H      1.700610   -1.757230   -4.078380
  H      0.293860   -2.359770   -4.256320
  H      1.501320   -3.428480   -3.694910
  H     -0.348410   -0.365040   -2.618580
  H      1.353580   -0.045030   -2.386430
  H      0.333170   -0.386820   -1.009840

 Total Charge           Charge          ....    1
 Multiplicity           Mult            ....    1
 Number of Electrons    NEL             ....   26
 Basis Dimension        Dim             ....  141

ORBITAL ENERGIES
----------------

  NO   OCC          E(Eh)            E(eV)
   0   2.0000     -14.722168      -400.6105
   1   2.0000     -10.475548      -285.0541
   2   2.0000     -10.394795      -282.8567
   3   2.0000      -1.236732       -33.6532
   4   2.0000      -0.988831       -26.9074
   5   2.0000      -0.869787       -23.6681
   6   2.0000      -0.805431       -21.9169
   7   2.0000      -0.787214       -21.4212
   8   2.0000      -0.716974       -19.5099
   9   2.0000      -0.651396       -17.7254
  10   2.0000      -0.596274       -16.2254
  11   2.0000      -0.581434       -15.8216
  12   2.0000      -0.562808       -15.3148
  13   0.0000      -0.188608        -5.1323
  14   0.0000      -0.128088        -3.4854
  15   0.0000      -0.124342        -3.3835
  16   0.0000      -0.105011        -2.8575
  17   0.0000      -0.061364        -1.6698

MULLIKEN ATOMIC CHARGES
-----------------------
   0 C :   -0.188353
   1 H :    0.190612
   2 N :   -0.313452
   3 C :   -0.380851
   4 H :    0.194652
   5 H :    0.325312
   6 H :    0.328321
   7 H :    0.347657
   8 H :    0.154656
   9 H :    0.155213
  10 H :    0.186234
Sum of atomic charges:    1.0000000

LOEWDIN ATOMIC CHARGES
----------------------
   0 C :   -0.282322
   1 H :    0.155284
   2 N :    0.149881
   3 C :   -0.279857
   4 H :    0.155056
   5 H :    0.229233
   6 H :    0.228593
   7 H :    0.232402
   8 H :    0.131406
   9 H :    0.131002
  10 H :    0.149322

  Mayer bond orders larger than 0.100000
B(  0-C ,  1-H ) :   0.9432 B(  0-C ,  2-N ) :   0.8773 B(  0-C ,  3-C ) :   1.0228
B(  0-C ,  4-H ) :   0.9448 B(  2-N ,  5-H ) :   0.8723 B(  2-N ,  6-H ) :   0.8726
B(  2-N ,  7-H ) :   0.8621 B(  3-C ,  8-H ) :   0.9588 B(  3-C ,  9-H ) :   0.9559
B(  3-C , 10-H ) :   0.9516

Dispersion correction           -0.005007490
FINAL SINGLE POINT ENERGY      -135.419125699783

DIPOLE MOMENT
-------------
                                X             Y             Z
Electronic contribution:      0.42076      -1.43517      -1.07884
Nuclear contribution   :     -0.07506       0.54337      -0.16191
                        -----------------------------------------
Total Dipole Moment    :      0.34570      -0.89181      -1.24075
                        -----------------------------------------
Magnitude (a.u.)       :      1.56661
Magnitude (Debye)      :      3.98202

Rotational constants in cm-1:     0.999557     0.280801     0.246932
Rotational constants in MHz : 29965.963633  8418.199581  7402.841054

                             ****ORCA TERMINATED NORMALLY****
TOTAL RUN TIME: 0 days 0 hours 0 minutes 13 seconds 228 msec
