                         Program Version 5.0.0 -  RELEASE  -
|  1> !PBE0 D3BJ RIJCOSX def2-TZVP def2/J TightSCF xyzfile
|  2>
|  3> *xyzfile 0 1 B.xyz
|  4>
|  5> %MaxCore 64000
|  6>
|  7> %pal nprocs 18
|  8> end
|  9>
| 10> %scf
| 11>   MaxIter 150
| 12> end
| 13>
| 14>
| 15>                          ****END OF INPUT****

CARTESIAN COORDINATES (ANGSTROEM)
---------------------------------
  C      0.816067   -2.101491   -2.186546
  H      1.696232   -2.368691   -1.600457
  N      1.100552   -2.467492   -3.599269
  C      0.516243   -0.613634   -2.039373
  H     -0.020066   -2.712849   -1.840844
  C     -0.868621   -0.193925   -2.546303
  C     -0.984801    1.284739   -2.928686
  H     -0.764939    1.904116   -2.051568
  H     -2.032613    1.478953   -3.178952
  C     -0.106085    1.769914   -4.089836
  H     -0.347744    2.822196   -4.262942
  H      0.949683    1.745875   -3.808781
  C     -0.258747    1.004323   -5.409829
  C      0.395958   -0.370696   -5.339939
  H      0.239150    1.569393   -6.201253
  H     -1.309360    0.888694   -5.682455
  H      1.700606   -1.757225   -4.078378
  H      0.293855   -2.359766   -4.256324
  H      1.501324   -3.428479   -3.694915
  O     -0.326329   -1.390398   -5.491279
  O      1.619412   -0.400726   -5.036827
  H     -1.607271   -0.412651   -1.768955
  H     -1.157234   -0.796164   -3.409254
  H      1.299044   -0.056805   -2.558982
  H      0.612393   -0.365579   -0.979171

 Total Charge           Charge          ....    0
 Multiplicity           Mult            ....    1
 Number of Electrons    NEL             ....   80
 Basis Dimension        Dim             ....  400

ORBITAL ENERGIES
----------------

  NO   OCC          E(Eh)            E(eV)
   0   2.0000     -19.138331      -520.7805
   1   2.0000     -19.136824      -520.7395
   2   2.0000     -14.469890      -393.7457
   3   2.0000     -10.293630      -280.1039
   4   2.0000     -10.291512      -280.0463
   5   2.0000     -10.235320      -278.5172
   6   2.0000     -10.217191      -278.0239
   7   2.0000     -10.212976      -277.9092
   8   2.0000     -10.206086      -277.7217
   9   2.0000     -10.196106      -277.4501
  10   2.0000      -1.056940       -28.7608
  11   2.0000      -1.004066       -27.3220
  12   2.0000      -0.956117       -26.0173
  13   2.0000      -0.838555       -22.8182
  14   2.0000      -0.794993       -21.6329
  15   2.0000      -0.746628       -20.3168
  16   2.0000      -0.681582       -18.5468
  17   2.0000      -0.645985       -17.5781
  18   2.0000      -0.592016       -16.1096
  19   2.0000      -0.581463       -15.8224
  20   2.0000      -0.556913       -15.1544
  21   2.0000      -0.530248       -14.4288
  22   2.0000      -0.497602       -13.5404
  23   2.0000      -0.482665       -13.1340
  24   2.0000      -0.469268       -12.7694
  25   2.0000      -0.458428       -12.4745
  26   2.0000      -0.437987       -11.9182
  27   2.0000      -0.431384       -11.7386
  28   2.0000      -0.413399       -11.2492
  29   2.0000      -0.402308       -10.9474
  30   2.0000      -0.396609       -10.7923
  31   2.0000      -0.384547       -10.4640
  32   2.0000      -0.363460        -9.8902
  33   2.0000      -0.359724        -9.7886
  34   2.0000      -0.335980        -9.1425
  35   2.0000      -0.321793        -8.7564
  36   2.0000      -0.317850        -8.6491
  37   2.0000      -0.261520        -7.1163
  38   2.0000      -0.248364        -6.7583
  39   2.0000      -0.240703        -6.5499
  40   0.0000       0.007188         0.1956
  41   0.0000       0.042500         1.1565
  42   0.0000       0.052097         1.4176
  43   0.0000       0.063942         1.7399
  44   0.0000       0.069183         1.8826

MULLIKEN ATOMIC CHARGES
-----------------------
   0 C :   -0.156172
   1 H :    0.139173
   2 N :   -0.289620
   3 C :   -0.262367
   4 H :    0.135026
   5 C :   -0.209778
   6 C :   -0.207802
   7 H :    0.093849
   8 H :    0.101650
   9 C :   -0.220800
  10 H :    0.104960
  11 H :    0.122074
  12 C :   -0.127480
  13 C :    0.223874
  14 H :    0.104747
  15 H :    0.089825
  16 H :    0.292889
  17 H :    0.291573
  18 H :    0.266160
  19 O :   -0.498584
  20 O :   -0.512494
  21 H :    0.100503
  22 H :    0.143572
  23 H :    0.159199
  24 H :    0.116025
Sum of atomic charges:   -0.0000000

LOEWDIN ATOMIC CHARGES
----------------------
   0 C :   -0.282219
   1 H :    0.135688
   2 N :    0.116796
   3 C :   -0.270292
   4 H :    0.137327
   5 C :   -0.272867
   6 C :   -0.269673
   7 H :    0.136445
   8 H :    0.140126
   9 C :   -0.270421
  10 H :    0.137307
  11 H :    0.139521
  12 C :   -0.238404
  13 C :   -0.641151
  14 H :    0.147650
  15 H :    0.140105
  16 H :    0.182098
  17 H :    0.182757
  18 H :    0.194362
  19 O :   -0.063688
  20 O :   -0.057788
  21 H :    0.135699
  22 H :    0.146751
  23 H :    0.150566
  24 H :    0.143302

  Mayer bond orders larger than 0.100000
B(  0-C ,  1-H ) :   0.9639 B(  0-C ,  2-N ) :   0.9345 B(  0-C ,  3-C ) :   1.0075
B(  0-C ,  4-H ) :   0.9643 B(  2-N , 16-H ) :   0.7618 B(  2-N , 17-H ) :   0.7724
B(  2-N , 18-H ) :   0.8973 B(  3-C ,  5-C ) :   0.9510 B(  3-C , 23-H ) :   0.9652
B(  3-C , 24-H ) :   0.9434 B(  5-C ,  6-C ) :   1.0021 B(  5-C , 21-H ) :   0.9458
B(  5-C , 22-H ) :   0.9644 B(  6-C ,  7-H ) :   0.9553 B(  6-C ,  8-H ) :   0.9546
B(  6-C ,  9-C ) :   1.0219 B(  9-C , 10-H ) :   0.9532 B(  9-C , 11-H ) :   0.9682
B(  9-C , 12-C ) :   0.9825 B( 12-C , 13-C ) :   0.9815 B( 12-C , 14-H ) :   0.9279
B( 12-C , 15-H ) :   0.9545 B( 13-C , 19-O ) :   1.7261 B( 13-C , 20-O ) :   1.6887
B( 16-H , 20-O ) :   0.1977 B( 17-H , 19-O ) :   0.1876

Dispersion correction           -0.023105877
FINAL SINGLE POINT ENERGY      -480.641738878076

DIPOLE MOMENT
-------------
                                X             Y             Z
Electronic contribution:      2.30719      -3.11372      -6.27505
Nuclear contribution   :     -2.02598       1.95876       8.24116
                        -----------------------------------------
Total Dipole Moment    :      0.28121      -1.15496       1.96611
                        -----------------------------------------
Magnitude (a.u.)       :      2.29752
Magnitude (Debye)      :      5.83983

Rotational constants in cm-1:     0.052900     0.041948     0.028766
Rotational constants in MHz :  1585.892512  1257.572595   862.390225

                             ****ORCA TERMINATED NORMALLY****
TOTAL RUN TIME: 0 days 0 hours 0 minutes 42 seconds 659 msec
