                         Program Version 5.0.0 -  RELEASE  -
|  1> !PBE0 D3BJ RIJCOSX def2-TZVP def2/J TightSCF
|  2> *xyz 0 1
|  3> C         -0.10608        1.76991       -4.08984
|  4> C         -0.25875        1.00432       -5.40983
|  5> C          0.39596       -0.37070       -5.33994
|  6> H          0.23915        1.56939       -6.20125
|  7> H         -1.30936        0.88869       -5.68245
|  8> F         -0.32633       -1.39040       -5.49128
|  9> O          1.61941       -0.40073       -5.03683
| 10> H         -0.57627        2.72718       -4.17630
| 11> H          0.93321        1.90140       -3.87192
| 12> H         -0.56868        1.21534       -3.30031
| 13> *
| 14> %MaxCore 64000
| 15>
| 16> %pal nprocs 4
| 17> end
| 18>
| 19> %scf
| 20>   MaxIter 150
| 21> end
| 22>
| 23>
| 24>                          ****END OF INPUT****

CARTESIAN COORDINATES (ANGSTROEM)
---------------------------------
  C     -0.106080    1.769910   -4.089840
  C     -0.258750    1.004320   -5.409830
  C      0.395960   -0.370700   -5.339940
  H      0.239150    1.569390   -6.201250
  H     -1.309360    0.888690   -5.682450
  F     -0.326330   -1.390400   -5.491280
  O      1.619410   -0.400730   -5.036830
  H     -0.576270    2.727180   -4.176300
  H      0.933210    1.901400   -3.871920
  H     -0.568680    1.215340   -3.300310

 Total Charge           Charge          ....    0
 Multiplicity           Mult            ....    1
 Number of Electrons    NEL             ....   40
 Basis Dimension        Dim             ....  185

ORBITAL ENERGIES
----------------

  NO   OCC          E(Eh)            E(eV)
   0   2.0000     -24.839862      -675.9270
   1   2.0000     -19.208447      -522.6884
   2   2.0000     -10.397413      -282.9280
   3   2.0000     -10.254236      -279.0320
   4   2.0000     -10.224810      -278.2312
   5   2.0000      -1.349106       -36.7110
   6   2.0000      -1.057695       -28.7813
   7   2.0000      -0.824792       -22.4437
   8   2.0000      -0.710935       -19.3455
   9   2.0000      -0.657910       -17.9026
  10   2.0000      -0.564044       -15.3484
  11   2.0000      -0.550759       -14.9869
  12   2.0000      -0.525636       -14.3033
  13   2.0000      -0.480128       -13.0649
  14   2.0000      -0.448518       -12.2048
  15   2.0000      -0.413257       -11.2453
  16   2.0000      -0.391219       -10.6456
  17   2.0000      -0.387375       -10.5410
  18   2.0000      -0.357364        -9.7244
  19   2.0000      -0.305268        -8.3068
  20   0.0000      -0.025342        -0.6896
  21   0.0000       0.043768         1.1910
  22   0.0000       0.083238         2.2650
  23   0.0000       0.096016         2.6127
  24   0.0000       0.109020         2.9666

MULLIKEN ATOMIC CHARGES
-----------------------
   0 C :   -0.368862
   1 C :   -0.200426
   2 C :    0.362000
   3 H :    0.131443
   4 H :    0.114717
   5 F :   -0.096968
   6 O :   -0.342136
   7 H :    0.129028
   8 H :    0.147655
   9 H :    0.123549
Sum of atomic charges:   -0.0000000

LOEWDIN ATOMIC CHARGES
----------------------
   0 C :   -0.288182
   1 C :   -0.262812
   2 C :   -0.494009
   3 H :    0.157184
   4 H :    0.139702
   5 F :    0.320245
   6 O :    0.058527
   7 H :    0.120619
   8 H :    0.127391
   9 H :    0.121335

  Mayer bond orders larger than 0.100000
B(  0-C ,  1-C ) :   0.9928 B(  0-C ,  7-H ) :   0.9653 B(  0-C ,  8-H ) :   0.9657
B(  0-C ,  9-H ) :   0.9722 B(  1-C ,  2-C ) :   1.0056 B(  1-C ,  3-H ) :   0.9367
B(  1-C ,  4-H ) :   0.9508 B(  2-C ,  5-F ) :   1.1653 B(  2-C ,  6-O ) :   2.0419

Dispersion correction           -0.005184016
FINAL SINGLE POINT ENERGY      -292.200781377249

DIPOLE MOMENT
-------------
                                X             Y             Z
Electronic contribution:      0.85581      -8.18947      -2.56723
Nuclear contribution   :     -1.80992       8.85192       2.42184
                        -----------------------------------------
Total Dipole Moment    :     -0.95411       0.66246      -0.14539
                        -----------------------------------------
Magnitude (a.u.)       :      1.17061
Magnitude (Debye)      :      2.97545

Rotational constants in cm-1:     0.298360     0.128849     0.102271
Rotational constants in MHz :  8944.606599  3862.796179  3066.020510

                             ****ORCA TERMINATED NORMALLY****
TOTAL RUN TIME: 0 days 0 hours 0 minutes 19 seconds 479 msec
