                         Program Version 5.0.0 -  RELEASE  -
|  1> !PBE0 D3BJ RIJCOSX def2-TZVP def2/J TightSCF
|  2> *xyz 0 1
|  3> C         -0.10608        1.76991       -4.08984
|  4> C         -0.25875        1.00432       -5.40983
|  5> C          0.39596       -0.37070       -5.33994
|  6> H          0.23915        1.56939       -6.20125
|  7> H         -1.30936        0.88869       -5.68245
|  8> O         -0.32633       -1.39040       -5.49128
|  9> F          1.61941       -0.40073       -5.03683
| 10> H         -0.57627        2.72718       -4.17630
| 11> H          0.93321        1.90140       -3.87192
| 12> H         -0.56868        1.21534       -3.30031
| 13> *
| 14> %MaxCore 64000
| 15>
| 16> %pal nprocs 4
| 17> end
| 18>
| 19> %scf
| 20>   MaxIter 150
| 21> end
| 22>
| 23>
| 24>                          ****END OF INPUT****

CARTESIAN COORDINATES (ANGSTROEM)
---------------------------------
  C     -0.106080    1.769910   -4.089840
  C     -0.258750    1.004320   -5.409830
  C      0.395960   -0.370700   -5.339940
  H      0.239150    1.569390   -6.201250
  H     -1.309360    0.888690   -5.682450
  O     -0.326330   -1.390400   -5.491280
  F      1.619410   -0.400730   -5.036830
  H     -0.576270    2.727180   -4.176300
  H      0.933210    1.901400   -3.871920
  H     -0.568680    1.215340   -3.300310

 Total Charge           Charge          ....    0
 Multiplicity           Mult            ....    1
 Number of Electrons    NEL             ....   40
 Basis Dimension        Dim             ....  185

ORBITAL ENERGIES
----------------

  NO   OCC          E(Eh)            E(eV)
   0   2.0000     -24.838333      -675.8854
   1   2.0000     -19.209209      -522.7092
   2   2.0000     -10.396480      -282.9026
   3   2.0000     -10.254017      -279.0260
   4   2.0000     -10.229861      -278.3687
   5   2.0000      -1.347534       -36.6683
   6   2.0000      -1.057701       -28.7815
   7   2.0000      -0.829412       -22.5695
   8   2.0000      -0.708096       -19.2683
   9   2.0000      -0.661523       -18.0010
  10   2.0000      -0.565373       -15.3846
  11   2.0000      -0.554182       -15.0801
  12   2.0000      -0.518418       -14.1069
  13   2.0000      -0.480808       -13.0834
  14   2.0000      -0.449928       -12.2432
  15   2.0000      -0.416250       -11.3267
  16   2.0000      -0.396868       -10.7993
  17   2.0000      -0.390955       -10.6384
  18   2.0000      -0.362481        -9.8636
  19   2.0000      -0.302093        -8.2204
  20   0.0000      -0.021435        -0.5833
  21   0.0000       0.039761         1.0819
  22   0.0000       0.081860         2.2275
  23   0.0000       0.098146         2.6707
  24   0.0000       0.113321         3.0836

MULLIKEN ATOMIC CHARGES
-----------------------
   0 C :   -0.372795
   1 C :   -0.196190
   2 C :    0.351670
   3 H :    0.119185
   4 H :    0.137874
   5 O :   -0.335463
   6 F :   -0.102276
   7 H :    0.133840
   8 H :    0.130069
   9 H :    0.134085
Sum of atomic charges:    0.0000000

LOEWDIN ATOMIC CHARGES
----------------------
   0 C :   -0.294483
   1 C :   -0.257514
   2 C :   -0.496932
   3 H :    0.149655
   4 H :    0.152767
   5 O :    0.059770
   6 F :    0.318896
   7 H :    0.122618
   8 H :    0.121568
   9 H :    0.123655

  Mayer bond orders larger than 0.100000
B(  0-C ,  1-C ) :   0.9819 B(  0-C ,  7-H ) :   0.9654 B(  0-C ,  8-H ) :   0.9685
B(  0-C ,  9-H ) :   0.9700 B(  1-C ,  2-C ) :   1.0228 B(  1-C ,  3-H ) :   0.9338
B(  1-C ,  4-H ) :   0.9558 B(  2-C ,  5-O ) :   2.0664 B(  2-C ,  6-F ) :   1.1502

Dispersion correction           -0.005153860
FINAL SINGLE POINT ENERGY      -292.202218769576

DIPOLE MOMENT
-------------
                                X             Y             Z
Electronic contribution:      4.07375      -6.51799      -1.80869
Nuclear contribution   :     -3.93139       7.77287       1.92635
                        -----------------------------------------
Total Dipole Moment    :      0.14237       1.25488       0.11766
                        -----------------------------------------
Magnitude (a.u.)       :      1.26840
Magnitude (Debye)      :      3.22402

Rotational constants in cm-1:     0.286068     0.133630     0.103472
Rotational constants in MHz :  8576.109806  4006.118234  3102.010802

                             ****ORCA TERMINATED NORMALLY****
TOTAL RUN TIME: 0 days 0 hours 0 minutes 19 seconds 733 msec
