                         Program Version 5.0.0 -  RELEASE  -
|  1> !CAM-B3LYP RIJCOSX def2-TZVPD def2/J TightSCF
|  2> *xyz -1 1
|  3> C         -0.90349       -0.87394       -1.98739
|  4> C         -0.96015       -0.52236       -0.48987
|  5> H         -1.69039       -1.20813       -0.02168
|  6> H         -1.41449        0.48633       -0.40668
|  7> O          0.26170       -0.58031        0.13861
|  8> H         -1.88568       -0.80774       -2.40670
|  9> H         -0.53143       -1.87013       -2.10605
| 10> H         -0.25399       -0.18836       -2.49039
| 11> *
| 12>
| 13> %MaxCore 64000
| 14>
| 15> %pal nprocs 4
| 16> end
| 17>
| 18> %scf
| 19>   MaxIter 150
| 20> end
| 21>
| 22>
| 23>                          ****END OF INPUT****

CARTESIAN COORDINATES (ANGSTROEM)
---------------------------------
  C     -0.903490   -0.873940   -1.987390
  C     -0.960150   -0.522360   -0.489870
  H     -1.690390   -1.208130   -0.021680
  H     -1.414490    0.486330   -0.406680
  O      0.261700   -0.580310    0.138610
  H     -1.885680   -0.807740   -2.406700
  H     -0.531430   -1.870130   -2.106050
  H     -0.253990   -0.188360   -2.490390

 Total Charge           Charge          ....   -1
 Multiplicity           Mult            ....    1
 Number of Electrons    NEL             ....   26
 Basis Dimension        Dim             ....  159

ORBITAL ENERGIES
----------------

  NO   OCC          E(Eh)            E(eV)
   0   2.0000     -18.864731      -513.3354
   1   2.0000     -10.057436      -273.6768
   2   2.0000     -10.034489      -273.0523
   3   2.0000      -0.758574       -20.6418
   4   2.0000      -0.608573       -16.5601
   5   2.0000      -0.450041       -12.2462
   6   2.0000      -0.322218        -8.7680
   7   2.0000      -0.298308        -8.1174
   8   2.0000      -0.240503        -6.5444
   9   2.0000      -0.224809        -6.1174
  10   2.0000      -0.177241        -4.8230
  11   2.0000      -0.033421        -0.9094
  12   2.0000      -0.031189        -0.8487
  13   0.0000       0.178916         4.8686
  14   0.0000       0.201913         5.4943
  15   0.0000       0.230360         6.2684
  16   0.0000       0.232346         6.3225
  17   0.0000       0.254110         6.9147

MULLIKEN ATOMIC CHARGES
-----------------------
   0 C :   -0.942075
   1 C :   -0.307726
   2 H :    0.196556
   3 H :    0.196326
   4 O :   -0.935899
   5 H :    0.321173
   6 H :    0.235869
   7 H :    0.235776
Sum of atomic charges:   -1.0000000

LOEWDIN ATOMIC CHARGES
----------------------
   0 C :   -0.170319
   1 C :   -0.618525
   2 H :    0.055829
   3 H :    0.057172
   4 O :   -0.431061
   5 H :    0.028330
   6 H :    0.039307
   7 H :    0.039267

  Mayer bond orders larger than 0.100000
B(  0-C ,  1-C ) :   0.7207 B(  0-C ,  4-O ) :   0.2734 B(  0-C ,  5-H ) :   0.9541
B(  0-C ,  6-H ) :   1.0015 B(  0-C ,  7-H ) :   1.0014 B(  1-C ,  2-H ) :   1.0505
B(  1-C ,  3-H ) :   1.0482 B(  1-C ,  4-O ) :   0.9466

FINAL SINGLE POINT ENERGY      -154.416098866008

DIPOLE MOMENT
-------------
                                X             Y             Z
Electronic contribution:      1.82423       0.17658       2.10780
Nuclear contribution   :     -2.90669      -0.27617      -3.31210
                        -----------------------------------------
Total Dipole Moment    :     -1.08246      -0.09958      -1.20431
                        -----------------------------------------
Magnitude (a.u.)       :      1.62234
Magnitude (Debye)      :      4.12367

Rotational constants in cm-1:     1.291883     0.321656     0.284469
Rotational constants in MHz : 38729.676116  9643.011620  8528.167295

                             ****ORCA TERMINATED NORMALLY****
TOTAL RUN TIME: 0 days 0 hours 0 minutes 23 seconds 347 msec
