                         Program Version 5.0.0 -  RELEASE  -
|  1> !CAM-B3LYP RIJCOSX def2-TZVPD def2/J TightSCF
|  2> *xyz 1 1
|  3> C          4.36645       -0.13321       -1.41606
|  4> C          4.50829       -0.93187       -2.72425
|  5> C          3.05650       -0.32080       -0.70738
|  6> N          2.38983        0.71129       -0.24391
|  7> N          2.51600       -1.50772       -0.55023
|  8> H          2.96768       -2.32291       -0.95631
|  9> H          1.54987       -1.49063       -0.24988
| 10> H          2.74307        1.64947       -0.41280
| 11> H          1.44036        0.50278        0.03703
| 12> H          4.48784        0.93300       -1.61157
| 13> H          5.16967       -0.41443       -0.72982
| 14> H          5.46700       -0.73824       -3.15818
| 15> H          3.74074       -0.63528       -3.40821
| 16> H          4.41574       -1.97727       -2.51573
| 17> *
| 18>
| 19> %MaxCore 64000
| 20>
| 21> %pal nprocs 4
| 22> end
| 23>
| 24> %scf
| 25>   MaxIter 150
| 26> end
| 27>
| 28>
| 29>                          ****END OF INPUT****

CARTESIAN COORDINATES (ANGSTROEM)
---------------------------------
  C      4.366450   -0.133210   -1.416060
  C      4.508290   -0.931870   -2.724250
  C      3.056500   -0.320800   -0.707380
  N      2.389830    0.711290   -0.243910
  N      2.516000   -1.507720   -0.550230
  H      2.967680   -2.322910   -0.956310
  H      1.549870   -1.490630   -0.249880
  H      2.743070    1.649470   -0.412800
  H      1.440360    0.502780    0.037030
  H      4.487840    0.933000   -1.611570
  H      5.169670   -0.414430   -0.729820
  H      5.467000   -0.738240   -3.158180
  H      3.740740   -0.635280   -3.408210
  H      4.415740   -1.977270   -2.515730

 Total Charge           Charge          ....    1
 Multiplicity           Mult            ....    1
 Number of Electrons    NEL             ....   40
 Basis Dimension        Dim             ....  266

ORBITAL ENERGIES
----------------

  NO   OCC          E(Eh)            E(eV)
   0   2.0000     -14.636082      -398.2680
   1   2.0000     -14.634656      -398.2292
   2   2.0000     -10.569635      -287.6144
   3   2.0000     -10.445975      -284.2494
   4   2.0000     -10.401743      -283.0458
   5   2.0000      -1.297602       -35.3096
   6   2.0000      -1.189512       -32.3683
   7   2.0000      -1.054389       -28.6914
   8   2.0000      -0.939708       -25.5708
   9   2.0000      -0.894775       -24.3481
  10   2.0000      -0.842813       -22.9341
  11   2.0000      -0.829283       -22.5659
  12   2.0000      -0.773561       -21.0497
  13   2.0000      -0.733448       -19.9581
  14   2.0000      -0.698272       -19.0009
  15   2.0000      -0.672091       -18.2885
  16   2.0000      -0.621829       -16.9208
  17   2.0000      -0.608478       -16.5575
  18   2.0000      -0.594046       -16.1648
  19   2.0000      -0.558448       -15.1961
  20   0.0000      -0.167100        -4.5470
  21   0.0000      -0.137933        -3.7534
  22   0.0000      -0.097106        -2.6424
  23   0.0000      -0.093380        -2.5410
  24   0.0000      -0.063952        -1.7402

MULLIKEN ATOMIC CHARGES
-----------------------
   0 C :   -0.375040
   1 C :   -1.228712
   2 C :    0.605453
   3 N :   -0.277307
   4 N :   -0.275520
   5 H :    0.226325
   6 H :    0.192702
   7 H :    0.244323
   8 H :    0.195435
   9 H :    0.304754
  10 H :    0.322034
  11 H :    0.332991
  12 H :    0.350457
  13 H :    0.382106
Sum of atomic charges:    1.0000000

LOEWDIN ATOMIC CHARGES
----------------------
   0 C :   -0.138907
   1 C :   -0.057865
   2 C :   -0.355430
   3 N :    0.224649
   4 N :    0.229213
   5 H :    0.146389
   6 H :    0.145488
   7 H :    0.153452
   8 H :    0.144006
   9 H :    0.124624
  10 H :    0.141804
  11 H :    0.088177
  12 H :    0.086229
  13 H :    0.068170

  Mayer bond orders larger than 0.100000
B(  0-C ,  1-C ) :   0.6001 B(  0-C ,  2-C ) :   0.7691 B(  0-C ,  9-H ) :   0.9239
B(  0-C , 10-H ) :   0.9286 B(  1-C , 11-H ) :   0.9799 B(  1-C , 12-H ) :   0.9451
B(  1-C , 13-H ) :   0.8891 B(  2-C ,  3-N ) :   1.2391 B(  2-C ,  4-N ) :   1.1930
B(  3-N ,  7-H ) :   0.9351 B(  3-N ,  8-H ) :   0.9988 B(  4-N ,  5-H ) :   0.9374
B(  4-N ,  6-H ) :   1.0057

FINAL SINGLE POINT ENERGY      -228.992229292528

DIPOLE MOMENT
-------------
                                X             Y             Z
Electronic contribution:     -2.65447       0.62838       3.10651
Nuclear contribution   :      1.78847      -0.48174      -2.67127
                        -----------------------------------------
Total Dipole Moment    :     -0.86600       0.14664       0.43524
                        -----------------------------------------
Magnitude (a.u.)       :      0.98025
Magnitude (Debye)      :      2.49161

Rotational constants in cm-1:     0.286883     0.123210     0.094446
Rotational constants in MHz :  8600.540572  3693.747366  2831.415242

                             ****ORCA TERMINATED NORMALLY****
TOTAL RUN TIME: 0 days 0 hours 0 minutes 57 seconds 778 msec
