                         Program Version 5.0.0 -  RELEASE  -
|  1> !CAM-B3LYP RIJCOSX def2-TZVPD def2/J TightSCF xyzfile
|  2>
|  3> *xyzfile 0 1 B.xyz
|  4>
|  5> %MaxCore 64000
|  6>
|  7> %pal nprocs 4
|  8> end
|  9>
| 10> %scf
| 11>   MaxIter 150
| 12> end
| 13>
| 14>
| 15>                          ****END OF INPUT****

CARTESIAN COORDINATES (ANGSTROEM)
---------------------------------
  C      4.366454   -0.133215   -1.416062
  C      4.508292   -0.931872   -2.724249
  H      4.753716   -1.972051   -2.488408
  C      3.294164   -0.918214   -3.656570
  H      5.385637   -0.536236   -3.242640
  H      2.483463   -1.477378   -3.185764
  H      3.553092   -1.478495   -4.560331
  C      2.772335    0.460100   -4.051448
  H      2.608762    1.065107   -3.155194
  C      1.465354    0.410537   -4.853644
  H      3.532940    0.988848   -4.635671
  C      0.326171   -0.375613   -4.192580
  H      1.666704   -0.022269   -5.839323
  H      1.138198    1.439246   -5.035449
  C     -0.017405    0.080588   -2.778406
  H      0.585573   -1.439385   -4.168057
  H     -0.560005   -0.311425   -4.831461
  H      0.902090    0.201296   -2.206729
  C     -0.903495   -0.873945   -1.987388
  H     -0.479549    1.074657   -2.811915
  H     -0.502554   -1.892096   -2.081204
  H     -1.917039   -0.895427   -2.406277
  C     -0.960148   -0.522365   -0.489867
  H     -1.690392   -1.208130   -0.021677
  H     -1.414490    0.486329   -0.406677
  O      0.261703   -0.580307    0.138611
  C      3.056503   -0.320797   -0.707384
  N      2.389825    0.711285   -0.243909
  N      2.515999   -1.507721   -0.550229
  H      2.967683   -2.322915   -0.956305
  H      1.549872   -1.490634   -0.249876
  H      2.743071    1.649471   -0.412802
  H      1.440364    0.502778    0.037031
  H      4.487835    0.932997   -1.611569
  H      5.169672   -0.414432   -0.729817

 Total Charge           Charge          ....    0
 Multiplicity           Mult            ....    1
 Number of Electrons    NEL             ....  104
 Basis Dimension        Dim             ....  682

ORBITAL ENERGIES
----------------

  NO   OCC          E(Eh)            E(eV)
   0   2.0000     -19.068533      -518.8811
   1   2.0000     -14.417386      -392.3170
   2   2.0000     -14.416978      -392.3059
   3   2.0000     -10.371865      -282.2328
   4   2.0000     -10.289630      -279.9951
   5   2.0000     -10.273680      -279.5610
   6   2.0000     -10.252118      -278.9743
   7   2.0000     -10.245686      -278.7993
   8   2.0000     -10.236913      -278.5606
   9   2.0000     -10.225994      -278.2634
  10   2.0000     -10.223920      -278.2070
  11   2.0000     -10.212306      -277.8910
  12   2.0000     -10.199405      -277.5399
  13   2.0000      -1.092793       -29.7364
  14   2.0000      -0.983415       -26.7601
  15   2.0000      -0.969042       -26.3690
  16   2.0000      -0.919320       -25.0160
  17   2.0000      -0.882412       -24.0117
  18   2.0000      -0.841884       -22.9088
  19   2.0000      -0.801314       -21.8049
  20   2.0000      -0.762129       -20.7386
  21   2.0000      -0.717118       -19.5138
  22   2.0000      -0.700348       -19.0574
  23   2.0000      -0.687438       -18.7061
  24   2.0000      -0.644009       -17.5244
  25   2.0000      -0.628622       -17.1057
  26   2.0000      -0.624257       -16.9869
  27   2.0000      -0.601258       -16.3611
  28   2.0000      -0.575837       -15.6693
  29   2.0000      -0.572419       -15.5763
  30   2.0000      -0.555786       -15.1237
  31   2.0000      -0.534496       -14.5444
  32   2.0000      -0.518367       -14.1055
  33   2.0000      -0.499128       -13.5820
  34   2.0000      -0.489016       -13.3068
  35   2.0000      -0.482167       -13.1204
  36   2.0000      -0.476205       -12.9582
  37   2.0000      -0.471154       -12.8208
  38   2.0000      -0.448150       -12.1948
  39   2.0000      -0.438137       -11.9223
  40   2.0000      -0.428441       -11.6585
  41   2.0000      -0.419091       -11.4040
  42   2.0000      -0.408649       -11.1199
  43   2.0000      -0.403730       -10.9861
  44   2.0000      -0.384608       -10.4657
  45   2.0000      -0.377601       -10.2751
  46   2.0000      -0.367678       -10.0050
  47   2.0000      -0.363695        -9.8967
  48   2.0000      -0.359461        -9.7814
  49   2.0000      -0.348281        -9.4772
  50   2.0000      -0.245421        -6.6782
  51   2.0000      -0.240619        -6.5476
  52   0.0000       0.009901         0.2694
  53   0.0000       0.020148         0.5483
  54   0.0000       0.027576         0.7504
  55   0.0000       0.039590         1.0773
  56   0.0000       0.046856         1.2750

MULLIKEN ATOMIC CHARGES
-----------------------
   0 C :   -0.487602
   1 C :   -0.846673
   2 H :    0.356447
   3 C :   -0.364472
   4 H :    0.304469
   5 H :    0.254435
   6 H :    0.337332
   7 C :   -0.601741
   8 H :    0.322715
   9 C :   -0.739085
  10 H :    0.302356
  11 C :   -0.635493
  12 H :    0.308944
  13 H :    0.306052
  14 C :    0.269004
  15 H :    0.259305
  16 H :    0.350047
  17 H :   -0.349683
  18 C :   -0.584813
  19 H :    0.390084
  20 H :    0.252576
  21 H :    0.322039
  22 C :   -0.582106
  23 H :    0.303996
  24 H :    0.290128
  25 O :   -1.048199
  26 C :    0.007857
  27 N :   -0.238678
  28 N :   -0.204434
  29 H :    0.184692
  30 H :    0.391818
  31 H :    0.172292
  32 H :    0.395718
  33 H :    0.343159
  34 H :    0.257513
Sum of atomic charges:   -0.0000000

LOEWDIN ATOMIC CHARGES
----------------------
   0 C :   -0.114752
   1 C :   -0.192616
   2 H :    0.108089
   3 C :   -0.212130
   4 H :    0.114832
   5 H :    0.092565
   6 H :    0.122609
   7 C :   -0.213761
   8 H :    0.094735
   9 C :   -0.207632
  10 H :    0.116386
  11 C :   -0.220969
  12 H :    0.108966
  13 H :    0.110498
  14 C :   -0.224472
  15 H :    0.102310
  16 H :    0.113172
  17 H :    0.072537
  18 C :   -0.206138
  19 H :    0.125171
  20 H :    0.107374
  21 H :    0.108813
  22 C :   -0.398608
  23 H :    0.096463
  24 H :    0.101184
  25 O :   -0.336074
  26 C :   -0.390076
  27 N :    0.196345
  28 N :    0.212066
  29 H :    0.133416
  30 H :    0.054184
  31 H :    0.134236
  32 H :    0.047938
  33 H :    0.114987
  34 H :    0.128353

  Mayer bond orders larger than 0.100000
B(  0-C ,  1-C ) :   0.7398 B(  0-C ,  3-C ) :  -0.1202 B(  0-C , 26-C ) :   0.7446
B(  0-C , 33-H ) :   0.9547 B(  0-C , 34-H ) :   0.9974 B(  1-C ,  2-H ) :   0.9411
B(  1-C ,  3-C ) :   0.7282 B(  1-C ,  4-H ) :   0.9442 B(  1-C ,  7-C ) :   0.1221
B(  3-C ,  5-H ) :   1.0875 B(  3-C ,  6-H ) :   0.8945 B(  3-C ,  7-C ) :   0.4190
B(  3-C ,  8-H ) :  -0.1013 B(  5-H ,  7-C ) :  -0.1087 B(  7-C ,  8-H ) :   1.0200
B(  7-C ,  9-C ) :   0.8448 B(  7-C , 10-H ) :   0.9420 B(  9-C , 11-C ) :   0.7601
B(  9-C , 12-H ) :   0.9652 B(  9-C , 13-H ) :   0.9814 B( 11-C , 14-C ) :   0.4692
B( 11-C , 15-H ) :   1.0177 B( 11-C , 16-H ) :   0.9102 B( 11-C , 17-H ) :  -0.1994
B( 11-C , 18-C ) :   0.2694 B( 14-C , 15-H ) :  -0.1038 B( 14-C , 17-H ) :   1.4894
B( 14-C , 18-C ) :   0.6547 B( 14-C , 19-H ) :   0.7817 B( 14-C , 22-C ) :   0.1051
B( 14-C , 25-O ) :   0.2313 B( 14-C , 27-N ) :  -0.1277 B( 17-H , 25-O ) :  -0.1826
B( 18-C , 20-H ) :   0.9392 B( 18-C , 21-H ) :   0.9802 B( 18-C , 22-C ) :   0.7881
B( 22-C , 23-H ) :   0.9740 B( 22-C , 24-H ) :   0.9778 B( 22-C , 25-O ) :   0.9444
B( 25-O , 26-C ) :  -0.1080 B( 25-O , 30-H ) :   0.2182 B( 25-O , 32-H ) :   0.1615
B( 26-C , 27-N ) :   1.5676 B( 26-C , 28-N ) :   1.4069 B( 27-N , 31-H ) :   0.9617
B( 27-N , 32-H ) :   0.6962 B( 28-N , 29-H ) :   0.9321 B( 28-N , 30-H ) :   0.6864

FINAL SINGLE POINT ENERGY      -578.936012592137

DIPOLE MOMENT
-------------
                                X             Y             Z
Electronic contribution:      2.81549      -0.26371       7.50760
Nuclear contribution   :     -0.17996       0.53390      -8.68067
                        -----------------------------------------
Total Dipole Moment    :      2.63553       0.27019      -1.17307
                        -----------------------------------------
Magnitude (a.u.)       :      2.89743
Magnitude (Debye)      :      7.36469

Rotational constants in cm-1:     0.028240     0.022734     0.014600
Rotational constants in MHz :   846.611263   681.554306   437.693928

                             ****ORCA TERMINATED NORMALLY****
TOTAL RUN TIME: 0 days 0 hours 10 minutes 26 seconds 406 msec
