                         Program Version 5.0.0 -  RELEASE  -
|  1> !CAM-B3LYP RIJCOSX def2-TZVPD def2/J TightSCF
|  2> *xyz 0 1
|  3> C         -0.90349       -0.87394       -1.98739
|  4> C         -0.96015       -0.52236       -0.48987
|  5> H         -1.69039       -1.20813       -0.02168
|  6> H         -1.41449        0.48633       -0.40668
|  7> F          0.26170       -0.58031        0.13861
|  8> H         -1.88568       -0.80774       -2.40670
|  9> H         -0.53143       -1.87013       -2.10605
| 10> H         -0.25399       -0.18836       -2.49039
| 11> *
| 12>
| 13> %MaxCore 64000
| 14>
| 15> %pal nprocs 4
| 16> end
| 17>
| 18> %scf
| 19>   MaxIter 150
| 20> end
| 21>
| 22>
| 23>                          ****END OF INPUT****

CARTESIAN COORDINATES (ANGSTROEM)
---------------------------------
  C     -0.903490   -0.873940   -1.987390
  C     -0.960150   -0.522360   -0.489870
  H     -1.690390   -1.208130   -0.021680
  H     -1.414490    0.486330   -0.406680
  F      0.261700   -0.580310    0.138610
  H     -1.885680   -0.807740   -2.406700
  H     -0.531430   -1.870130   -2.106050
  H     -0.253990   -0.188360   -2.490390

 Total Charge           Charge          ....    0
 Multiplicity           Mult            ....    1
 Number of Electrons    NEL             ....   26
 Basis Dimension        Dim             ....  159

ORBITAL ENERGIES
----------------

  NO   OCC          E(Eh)            E(eV)
   0   2.0000     -24.744007      -673.3186
   1   2.0000     -10.323931      -280.9285
   2   2.0000     -10.239303      -278.6256
   3   2.0000      -1.279193       -34.8086
   4   2.0000      -0.848551       -23.0903
   5   2.0000      -0.711429       -19.3590
   6   2.0000      -0.579972       -15.7818
   7   2.0000      -0.570389       -15.5211
   8   2.0000      -0.530764       -14.4428
   9   2.0000      -0.476787       -12.9740
  10   2.0000      -0.470768       -12.8103
  11   2.0000      -0.405161       -11.0250
  12   2.0000      -0.399882       -10.8813
  13   0.0000       0.035682         0.9710
  14   0.0000       0.060558         1.6479
  15   0.0000       0.081321         2.2129
  16   0.0000       0.083668         2.2767
  17   0.0000       0.111587         3.0364

MULLIKEN ATOMIC CHARGES
-----------------------
   0 C :   -0.938890
   1 C :   -0.122049
   2 H :    0.235056
   3 H :    0.234607
   4 F :   -0.300157
   5 H :    0.322934
   6 H :    0.284274
   7 H :    0.284224
Sum of atomic charges:   -0.0000000

LOEWDIN ATOMIC CHARGES
----------------------
   0 C :   -0.084922
   1 C :   -0.286243
   2 H :    0.111146
   3 H :    0.112900
   4 F :   -0.050843
   5 H :    0.067606
   6 H :    0.065199
   7 H :    0.065158

  Mayer bond orders larger than 0.100000
B(  0-C ,  1-C ) :   0.7293 B(  0-C ,  5-H ) :   0.9383 B(  0-C ,  6-H ) :   0.9584
B(  0-C ,  7-H ) :   0.9583 B(  1-C ,  2-H ) :   0.9808 B(  1-C ,  3-H ) :   0.9795
B(  1-C ,  4-F ) :   0.8061

FINAL SINGLE POINT ENERGY      -179.063920588631

DIPOLE MOMENT
-------------
                                X             Y             Z
Electronic contribution:      3.20494       0.37671       3.97186
Nuclear contribution   :     -3.84149      -0.36812      -4.38946
                        -----------------------------------------
Total Dipole Moment    :     -0.63655       0.00859      -0.41760
                        -----------------------------------------
Magnitude (a.u.)       :      0.76135
Magnitude (Debye)      :      1.93521

Rotational constants in cm-1:     1.270659     0.299196     0.265842
Rotational constants in MHz : 38093.410361  8969.665806  7969.741481

                             ****ORCA TERMINATED NORMALLY****
TOTAL RUN TIME: 0 days 0 hours 0 minutes 18 seconds 348 msec
