                         Program Version 5.0.0 -  RELEASE  -
|  1> !CAM-B3LYP RIJCOSX def2-TZVPD def2/J TightSCF
|  2> *xyz 0 1
|  3> C          4.36645       -0.13321       -1.41606
|  4> C          4.50829       -0.93187       -2.72425
|  5> C          3.05650       -0.32080       -0.70738
|  6> C          2.38983        0.71129       -0.24391
|  7> N          2.51600       -1.50772       -0.55023
|  8> H          2.96768       -2.32291       -0.95631
|  9> H          1.54987       -1.49063       -0.24988
| 10> H          2.74307        1.64947       -0.41280
| 11> H          1.44036        0.50278        0.03703
| 12> H          4.48784        0.93300       -1.61157
| 13> H          5.16967       -0.41443       -0.72982
| 14> H          5.46700       -0.73824       -3.15818
| 15> H          3.74074       -0.63528       -3.40821
| 16> H          4.41574       -1.97727       -2.51573
| 17> *
| 18>
| 19> %MaxCore 64000
| 20>
| 21> %pal nprocs 4
| 22> end
| 23>
| 24> %scf
| 25>   MaxIter 150
| 26> end
| 27>
| 28>
| 29>                          ****END OF INPUT****

CARTESIAN COORDINATES (ANGSTROEM)
---------------------------------
  C      4.366450   -0.133210   -1.416060
  C      4.508290   -0.931870   -2.724250
  C      3.056500   -0.320800   -0.707380
  C      2.389830    0.711290   -0.243910
  N      2.516000   -1.507720   -0.550230
  H      2.967680   -2.322910   -0.956310
  H      1.549870   -1.490630   -0.249880
  H      2.743070    1.649470   -0.412800
  H      1.440360    0.502780    0.037030
  H      4.487840    0.933000   -1.611570
  H      5.169670   -0.414430   -0.729820
  H      5.467000   -0.738240   -3.158180
  H      3.740740   -0.635280   -3.408210
  H      4.415740   -1.977270   -2.515730

 Total Charge           Charge          ....    0
 Multiplicity           Mult            ....    1
 Number of Electrons    NEL             ....   40
 Basis Dimension        Dim             ....  266

ORBITAL ENERGIES
----------------

  NO   OCC          E(Eh)            E(eV)
   0   2.0000     -14.387616      -391.5069
   1   2.0000     -10.262513      -279.2572
   2   2.0000     -10.245068      -278.7825
   3   2.0000     -10.234450      -278.4935
   4   2.0000     -10.173042      -276.8225
   5   2.0000      -1.017080       -27.6762
   6   2.0000      -0.861344       -23.4384
   7   2.0000      -0.804220       -21.8839
   8   2.0000      -0.715315       -19.4647
   9   2.0000      -0.636531       -17.3209
  10   2.0000      -0.606506       -16.5039
  11   2.0000      -0.542020       -14.7491
  12   2.0000      -0.510753       -13.8983
  13   2.0000      -0.500230       -13.6119
  14   2.0000      -0.462193       -12.5769
  15   2.0000      -0.449000       -12.2179
  16   2.0000      -0.424235       -11.5440
  17   2.0000      -0.409930       -11.1547
  18   2.0000      -0.392433       -10.6786
  19   2.0000      -0.248430        -6.7601
  20   0.0000       0.029640         0.8066
  21   0.0000       0.055040         1.4977
  22   0.0000       0.057997         1.5782
  23   0.0000       0.070921         1.9299
  24   0.0000       0.083965         2.2848

MULLIKEN ATOMIC CHARGES
-----------------------
   0 C :   -0.308178
   1 C :   -1.152004
   2 C :    0.626679
   3 C :   -1.110767
   4 N :   -0.347908
   5 H :    0.165906
   6 H :    0.148576
   7 H :    0.272778
   8 H :    0.271422
   9 H :    0.225679
  10 H :    0.256495
  11 H :    0.320528
  12 H :    0.309438
  13 H :    0.321356
Sum of atomic charges:   -0.0000000

LOEWDIN ATOMIC CHARGES
----------------------
   0 C :   -0.192302
   1 C :   -0.095814
   2 C :   -0.499426
   3 C :    0.014190
   4 N :    0.098672
   5 H :    0.103300
   6 H :    0.110455
   7 H :    0.023667
   8 H :    0.022132
   9 H :    0.108700
  10 H :    0.115083
  11 H :    0.065028
  12 H :    0.073248
  13 H :    0.053066

  Mayer bond orders larger than 0.100000
B(  0-C ,  1-C ) :   0.5697 B(  0-C ,  2-C ) :   0.7958 B(  0-C ,  9-H ) :   0.9728
B(  0-C , 10-H ) :   0.9269 B(  1-C , 11-H ) :   0.9815 B(  1-C , 12-H ) :   0.9916
B(  1-C , 13-H ) :   0.9360 B(  2-C ,  3-C ) :   1.2627 B(  2-C ,  4-N ) :   0.9858
B(  2-C ,  8-H ) :  -0.1715 B(  3-C ,  7-H ) :   0.9590 B(  3-C ,  8-H ) :   1.0855
B(  4-N ,  5-H ) :   1.0089 B(  4-N ,  6-H ) :   1.0083

FINAL SINGLE POINT ENERGY      -212.519154098301

DIPOLE MOMENT
-------------
                                X             Y             Z
Electronic contribution:     -1.47926      -0.42230       2.06096
Nuclear contribution   :      1.56827      -0.21459      -2.46657
                        -----------------------------------------
Total Dipole Moment    :      0.08900      -0.63689      -0.40561
                        -----------------------------------------
Magnitude (a.u.)       :      0.76031
Magnitude (Debye)      :      1.93255

Rotational constants in cm-1:     0.294070     0.127722     0.097792
Rotational constants in MHz :  8815.983970  3829.010547  2931.715816

                             ****ORCA TERMINATED NORMALLY****
TOTAL RUN TIME: 0 days 0 hours 1 minutes 0 seconds 444 msec
