                         Program Version 5.0.0 -  RELEASE  -
|  1> !CAM-B3LYP RIJCOSX def2-TZVPD def2/J TightSCF
|  2> *xyz 0 1
|  3> C          4.36645       -0.13321       -1.41606
|  4> C          4.50829       -0.93187       -2.72425
|  5> C          3.05650       -0.32080       -0.70738
|  6> N          2.38983        0.71129       -0.24391
|  7> C          2.51600       -1.50772       -0.55023
|  8> H          2.96768       -2.32291       -0.95631
|  9> H          1.54987       -1.49063       -0.24988
| 10> H          2.74307        1.64947       -0.41280
| 11> H          1.44036        0.50278        0.03703
| 12> H          4.48784        0.93300       -1.61157
| 13> H          5.16967       -0.41443       -0.72982
| 14> H          5.46700       -0.73824       -3.15818
| 15> H          3.74074       -0.63528       -3.40821
| 16> H          4.41574       -1.97727       -2.51573
| 17> *
| 18>
| 19> %MaxCore 64000
| 20>
| 21> %pal nprocs 4
| 22> end
| 23>
| 24> %scf
| 25>   MaxIter 150
| 26> end
| 27>
| 28>
| 29>                          ****END OF INPUT****

CARTESIAN COORDINATES (ANGSTROEM)
---------------------------------
  C      4.366450   -0.133210   -1.416060
  C      4.508290   -0.931870   -2.724250
  C      3.056500   -0.320800   -0.707380
  N      2.389830    0.711290   -0.243910
  C      2.516000   -1.507720   -0.550230
  H      2.967680   -2.322910   -0.956310
  H      1.549870   -1.490630   -0.249880
  H      2.743070    1.649470   -0.412800
  H      1.440360    0.502780    0.037030
  H      4.487840    0.933000   -1.611570
  H      5.169670   -0.414430   -0.729820
  H      5.467000   -0.738240   -3.158180
  H      3.740740   -0.635280   -3.408210
  H      4.415740   -1.977270   -2.515730

 Total Charge           Charge          ....    0
 Multiplicity           Mult            ....    1
 Number of Electrons    NEL             ....   40
 Basis Dimension        Dim             ....  266

ORBITAL ENERGIES
----------------

  NO   OCC          E(Eh)            E(eV)
   0   2.0000     -14.388470      -391.5302
   1   2.0000     -10.262698      -279.2622
   2   2.0000     -10.246412      -278.8190
   3   2.0000     -10.228216      -278.3239
   4   2.0000     -10.171207      -276.7726
   5   2.0000      -1.017414       -27.6852
   6   2.0000      -0.863010       -23.4837
   7   2.0000      -0.792940       -21.5770
   8   2.0000      -0.724950       -19.7269
   9   2.0000      -0.627275       -17.0690
  10   2.0000      -0.603584       -16.4243
  11   2.0000      -0.550003       -14.9663
  12   2.0000      -0.521716       -14.1966
  13   2.0000      -0.477312       -12.9883
  14   2.0000      -0.459021       -12.4906
  15   2.0000      -0.448484       -12.2039
  16   2.0000      -0.424657       -11.5555
  17   2.0000      -0.408224       -11.1084
  18   2.0000      -0.393840       -10.7169
  19   2.0000      -0.246900        -6.7185
  20   0.0000       0.032415         0.8821
  21   0.0000       0.051844         1.4107
  22   0.0000       0.059439         1.6174
  23   0.0000       0.069413         1.8888
  24   0.0000       0.087258         2.3744

MULLIKEN ATOMIC CHARGES
-----------------------
   0 C :   -0.356160
   1 C :   -1.103593
   2 C :    0.645810
   3 N :   -0.344509
   4 C :   -1.144256
   5 H :    0.248332
   6 H :    0.270523
   7 H :    0.186335
   8 H :    0.152573
   9 H :    0.261206
  10 H :    0.263048
  11 H :    0.314422
  12 H :    0.308601
  13 H :    0.297669
Sum of atomic charges:   -0.0000000

LOEWDIN ATOMIC CHARGES
----------------------
   0 C :   -0.191794
   1 C :   -0.093752
   2 C :   -0.495938
   3 N :    0.092614
   4 C :    0.013920
   5 H :    0.020714
   6 H :    0.023798
   7 H :    0.107377
   8 H :    0.108834
   9 H :    0.101611
  10 H :    0.116954
  11 H :    0.063417
  12 H :    0.073371
  13 H :    0.058874

  Mayer bond orders larger than 0.100000
B(  0-C ,  1-C ) :   0.6014 B(  0-C ,  2-C ) :   0.5840 B(  0-C ,  9-H ) :   1.0277
B(  0-C , 10-H ) :   0.9610 B(  1-C , 11-H ) :   0.9685 B(  1-C , 12-H ) :   0.9739
B(  1-C , 13-H ) :   0.9763 B(  2-C ,  3-N ) :   1.0677 B(  2-C ,  4-C ) :   1.1555
B(  2-C ,  6-H ) :  -0.1863 B(  2-C ,  9-H ) :  -0.1257 B(  3-N ,  4-C ) :   0.1081
B(  3-N ,  7-H ) :   1.0112 B(  3-N ,  8-H ) :   0.9979 B(  4-C ,  5-H ) :   0.9887
B(  4-C ,  6-H ) :   1.0952

FINAL SINGLE POINT ENERGY      -212.517888525986

DIPOLE MOMENT
-------------
                                X             Y             Z
Electronic contribution:     -1.59045       1.45127       2.33546
Nuclear contribution   :      1.59749      -0.72853      -2.53752
                        -----------------------------------------
Total Dipole Moment    :      0.00704       0.72274      -0.20206
                        -----------------------------------------
Magnitude (a.u.)       :      0.75048
Magnitude (Debye)      :      1.90758

Rotational constants in cm-1:     0.304597     0.124127     0.096828
Rotational constants in MHz :  9131.600925  3721.227051  2902.830760

                             ****ORCA TERMINATED NORMALLY****
TOTAL RUN TIME: 0 days 0 hours 1 minutes 0 seconds 605 msec
