                         Program Version 5.0.0 -  RELEASE  -
|  1> !CAM-B3LYP RIJCOSX def2-TZVPD def2/J TightSCF xyzfile
|  2>
|  3> *xyzfile 0 1 D1.xyz
|  4>
|  5> %MaxCore 64000
|  6>
|  7> %pal nprocs 4
|  8> end
|  9>
| 10> %scf
| 11>   MaxIter 150
| 12> end
| 13>
| 14>
| 15>                          ****END OF INPUT****

CARTESIAN COORDINATES (ANGSTROEM)
---------------------------------
  C      4.366454   -0.133215   -1.416062
  C      4.508292   -0.931872   -2.724249
  H      4.753716   -1.972051   -2.488408
  C      3.294164   -0.918214   -3.656570
  H      5.385637   -0.536236   -3.242640
  H      2.483463   -1.477378   -3.185764
  H      3.553092   -1.478495   -4.560331
  C      2.772335    0.460100   -4.051448
  H      2.608762    1.065107   -3.155194
  C      1.465354    0.410537   -4.853644
  H      3.532940    0.988848   -4.635671
  C      0.326171   -0.375613   -4.192580
  H      1.666704   -0.022269   -5.839323
  H      1.138198    1.439246   -5.035449
  C     -0.017405    0.080588   -2.778406
  H      0.585573   -1.439385   -4.168057
  H     -0.560005   -0.311425   -4.831461
  H      0.902090    0.201296   -2.206729
  C     -0.903495   -0.873945   -1.987388
  H     -0.479549    1.074657   -2.811915
  H     -0.502554   -1.892096   -2.081204
  H     -1.917039   -0.895427   -2.406277
  C     -0.960148   -0.522365   -0.489867
  H     -1.690392   -1.208130   -0.021677
  H     -1.414490    0.486329   -0.406677
  F      0.261703   -0.580307    0.138611
  C      3.056503   -0.320797   -0.707384
  C      2.389825    0.711285   -0.243909
  N      2.515999   -1.507721   -0.550229
  H      2.967683   -2.322915   -0.956305
  H      1.549872   -1.490634   -0.249876
  H      2.743071    1.649471   -0.412802
  H      1.440364    0.502778    0.037031
  H      4.487835    0.932997   -1.611569
  H      5.169672   -0.414432   -0.729817

 Total Charge           Charge          ....    0
 Multiplicity           Mult            ....    1
 Number of Electrons    NEL             ....  104
 Basis Dimension        Dim             ....  682

ORBITAL ENERGIES
----------------

  NO   OCC          E(Eh)            E(eV)
   0   2.0000     -24.773660      -674.1256
   1   2.0000     -14.362578      -390.8256
   2   2.0000     -10.335948      -281.2554
   3   2.0000     -10.255582      -279.0686
   4   2.0000     -10.244996      -278.7805
   5   2.0000     -10.235782      -278.5298
   6   2.0000     -10.235409      -278.5196
   7   2.0000     -10.233140      -278.4579
   8   2.0000     -10.233071      -278.4560
   9   2.0000     -10.231213      -278.4054
  10   2.0000     -10.228756      -278.3386
  11   2.0000     -10.226729      -278.2835
  12   2.0000     -10.147447      -276.1261
  13   2.0000      -1.319793       -35.9134
  14   2.0000      -0.999468       -27.1969
  15   2.0000      -0.903138       -24.5756
  16   2.0000      -0.880362       -23.9559
  17   2.0000      -0.853323       -23.2201
  18   2.0000      -0.814731       -22.1700
  19   2.0000      -0.786825       -21.4106
  20   2.0000      -0.765612       -20.8334
  21   2.0000      -0.717069       -19.5124
  22   2.0000      -0.693695       -18.8764
  23   2.0000      -0.663498       -18.0547
  24   2.0000      -0.632300       -17.2058
  25   2.0000      -0.616636       -16.7795
  26   2.0000      -0.608821       -16.5669
  27   2.0000      -0.600763       -16.3476
  28   2.0000      -0.589123       -16.0309
  29   2.0000      -0.558861       -15.2074
  30   2.0000      -0.543502       -14.7894
  31   2.0000      -0.531217       -14.4551
  32   2.0000      -0.513574       -13.9751
  33   2.0000      -0.508190       -13.8285
  34   2.0000      -0.497349       -13.5336
  35   2.0000      -0.491263       -13.3679
  36   2.0000      -0.466457       -12.6929
  37   2.0000      -0.457576       -12.4513
  38   2.0000      -0.447951       -12.1894
  39   2.0000      -0.439493       -11.9592
  40   2.0000      -0.431883       -11.7521
  41   2.0000      -0.423294       -11.5184
  42   2.0000      -0.415743       -11.3129
  43   2.0000      -0.407554       -11.0901
  44   2.0000      -0.404309       -11.0018
  45   2.0000      -0.396048       -10.7770
  46   2.0000      -0.377341       -10.2680
  47   2.0000      -0.376421       -10.2429
  48   2.0000      -0.368870       -10.0375
  49   2.0000      -0.365509        -9.9460
  50   2.0000      -0.362303        -9.8588
  51   2.0000      -0.230277        -6.2662
  52   0.0000       0.029351         0.7987
  53   0.0000       0.037515         1.0208
  54   0.0000       0.042783         1.1642
  55   0.0000       0.045749         1.2449
  56   0.0000       0.061748         1.6802

MULLIKEN ATOMIC CHARGES
-----------------------
   0 C :   -0.517882
   1 C :   -0.846545
   2 H :    0.340426
   3 C :   -0.301616
   4 H :    0.287693
   5 H :    0.239939
   6 H :    0.303557
   7 C :   -0.619589
   8 H :    0.308072
   9 C :   -0.725356
  10 H :    0.305855
  11 C :   -0.711777
  12 H :    0.313803
  13 H :    0.308421
  14 C :    0.297081
  15 H :    0.296920
  16 H :    0.350178
  17 H :   -0.269762
  18 C :   -0.676950
  19 H :    0.352252
  20 H :    0.288089
  21 H :    0.332294
  22 C :   -0.381958
  23 H :    0.308226
  24 H :    0.311332
  25 F :   -0.452072
  26 C :    0.178652
  27 C :   -1.382644
  28 N :   -0.294812
  29 H :    0.149034
  30 H :    0.401674
  31 H :    0.324066
  32 H :    0.646462
  33 H :    0.271092
  34 H :    0.265846
Sum of atomic charges:    0.0000000

LOEWDIN ATOMIC CHARGES
----------------------
   0 C :   -0.143884
   1 C :   -0.200131
   2 H :    0.102964
   3 C :   -0.214849
   4 H :    0.108622
   5 H :    0.088804
   6 H :    0.117252
   7 C :   -0.209839
   8 H :    0.099855
   9 C :   -0.206611
  10 H :    0.116410
  11 C :   -0.217638
  12 H :    0.108991
  13 H :    0.109845
  14 C :   -0.217680
  15 H :    0.104052
  16 H :    0.112001
  17 H :    0.077022
  18 C :   -0.180960
  19 H :    0.128431
  20 H :    0.116053
  21 H :    0.121117
  22 C :   -0.187815
  23 H :    0.122138
  24 H :    0.130675
  25 F :   -0.087947
  26 C :   -0.485798
  27 C :    0.014306
  28 N :    0.120146
  29 H :    0.113121
  30 H :    0.074659
  31 H :    0.035647
  32 H :    0.002301
  33 H :    0.111183
  34 H :    0.117557

  Mayer bond orders larger than 0.100000
B(  0-C ,  1-C ) :   0.7231 B(  0-C ,  3-C ) :  -0.1361 B(  0-C ,  7-C ) :   0.1234
B(  0-C , 26-C ) :   0.6838 B(  0-C , 33-H ) :   0.9908 B(  0-C , 34-H ) :   0.9650
B(  1-C ,  2-H ) :   0.9473 B(  1-C ,  3-C ) :   0.7528 B(  1-C ,  4-H ) :   0.9564
B(  1-C ,  7-C ) :   0.1361 B(  3-C ,  5-H ) :   1.0658 B(  3-C ,  6-H ) :   0.9268
B(  3-C ,  7-C ) :   0.4080 B(  3-C , 11-C ) :   0.1229 B(  5-H ,  7-C ) :  -0.1132
B(  7-C ,  8-H ) :   1.0746 B(  7-C ,  9-C ) :   0.7830 B(  7-C , 10-H ) :   0.9196
B(  9-C , 11-C ) :   0.8115 B(  9-C , 12-H ) :   0.9596 B(  9-C , 13-H ) :   0.9747
B( 11-C , 14-C ) :   0.4749 B( 11-C , 15-H ) :   0.9904 B( 11-C , 16-H ) :   0.9054
B( 11-C , 17-H ) :  -0.1317 B( 11-C , 18-C ) :   0.2854 B( 14-C , 17-H ) :   1.3713
B( 14-C , 18-C ) :   0.5778 B( 14-C , 19-H ) :   0.8043 B( 14-C , 26-C ) :  -0.1073
B( 17-H , 19-H ) :   0.1432 B( 18-C , 20-H ) :   0.9347 B( 18-C , 21-H ) :   0.9577
B( 18-C , 22-C ) :   0.7937 B( 22-C , 23-H ) :   0.9549 B( 22-C , 24-H ) :   0.9389
B( 22-C , 25-F ) :   0.7746 B( 26-C , 27-C ) :   1.7850 B( 26-C , 28-N ) :   0.8957
B( 27-C , 31-H ) :   0.9580 B( 27-C , 32-H ) :   0.7888 B( 28-N , 29-H ) :   0.9444
B( 28-N , 30-H ) :   0.8018

FINAL SINGLE POINT ENERGY      -586.868704397746

DIPOLE MOMENT
-------------
                                X             Y             Z
Electronic contribution:     -2.70910      -1.59130      10.43126
Nuclear contribution   :      1.82572       1.04089     -11.09065
                        -----------------------------------------
Total Dipole Moment    :     -0.88338      -0.55040      -0.65939
                        -----------------------------------------
Magnitude (a.u.)       :      1.23211
Magnitude (Debye)      :      3.13178

Rotational constants in cm-1:     0.028436     0.022359     0.014416
Rotational constants in MHz :   852.496561   670.291843   432.183951

                             ****ORCA TERMINATED NORMALLY****
TOTAL RUN TIME: 0 days 0 hours 11 minutes 12 seconds 829 msec
