                         Program Version 5.0.0 -  RELEASE  -
|  1> !CAM-B3LYP RIJCOSX def2-TZVPD def2/J TightSCF xyzfile
|  2>
|  3> *xyzfile 0 1 D2.xyz
|  4>
|  5> %MaxCore 64000
|  6>
|  7> %pal nprocs 4
|  8> end
|  9>
| 10> %scf
| 11>   MaxIter 150
| 12> end
| 13>
| 14>
| 15>                          ****END OF INPUT****

CARTESIAN COORDINATES (ANGSTROEM)
---------------------------------
  C      4.366454   -0.133215   -1.416062
  C      4.508292   -0.931872   -2.724249
  H      4.753716   -1.972051   -2.488408
  C      3.294164   -0.918214   -3.656570
  H      5.385637   -0.536236   -3.242640
  H      2.483463   -1.477378   -3.185764
  H      3.553092   -1.478495   -4.560331
  C      2.772335    0.460100   -4.051448
  H      2.608762    1.065107   -3.155194
  C      1.465354    0.410537   -4.853644
  H      3.532940    0.988848   -4.635671
  C      0.326171   -0.375613   -4.192580
  H      1.666704   -0.022269   -5.839323
  H      1.138198    1.439246   -5.035449
  C     -0.017405    0.080588   -2.778406
  H      0.585573   -1.439385   -4.168057
  H     -0.560005   -0.311425   -4.831461
  H      0.902090    0.201296   -2.206729
  C     -0.903495   -0.873945   -1.987388
  H     -0.479549    1.074657   -2.811915
  H     -0.502554   -1.892096   -2.081204
  H     -1.917039   -0.895427   -2.406277
  C     -0.960148   -0.522365   -0.489867
  H     -1.690392   -1.208130   -0.021677
  H     -1.414490    0.486329   -0.406677
  F      0.261703   -0.580307    0.138611
  C      3.056503   -0.320797   -0.707384
  N      2.389825    0.711285   -0.243909
  C      2.515999   -1.507721   -0.550229
  H      2.967683   -2.322915   -0.956305
  H      1.549872   -1.490634   -0.249876
  H      2.743071    1.649471   -0.412802
  H      1.440364    0.502778    0.037031
  H      4.487835    0.932997   -1.611569
  H      5.169672   -0.414432   -0.729817

 Total Charge           Charge          ....    0
 Multiplicity           Mult            ....    1
 Number of Electrons    NEL             ....  104
 Basis Dimension        Dim             ....  682

ORBITAL ENERGIES
----------------

  NO   OCC          E(Eh)            E(eV)
   0   2.0000     -24.773823      -674.1300
   1   2.0000     -14.362577      -390.8256
   2   2.0000     -10.336212      -281.2626
   3   2.0000     -10.254048      -279.0268
   4   2.0000     -10.244525      -278.7677
   5   2.0000     -10.235587      -278.5245
   6   2.0000     -10.235216      -278.5144
   7   2.0000     -10.233660      -278.4720
   8   2.0000     -10.232628      -278.4440
   9   2.0000     -10.231297      -278.4078
  10   2.0000     -10.228467      -278.3307
  11   2.0000     -10.222682      -278.1733
  12   2.0000     -10.145568      -276.0749
  13   2.0000      -1.319922       -35.9169
  14   2.0000      -0.999321       -27.1929
  15   2.0000      -0.903005       -24.5720
  16   2.0000      -0.879895       -23.9432
  17   2.0000      -0.854127       -23.2420
  18   2.0000      -0.811158       -22.0727
  19   2.0000      -0.779503       -21.2114
  20   2.0000      -0.767136       -20.8748
  21   2.0000      -0.720806       -19.6141
  22   2.0000      -0.695162       -18.9163
  23   2.0000      -0.664719       -18.0879
  24   2.0000      -0.629507       -17.1297
  25   2.0000      -0.620276       -16.8786
  26   2.0000      -0.604498       -16.4492
  27   2.0000      -0.596805       -16.2399
  28   2.0000      -0.584199       -15.8969
  29   2.0000      -0.555932       -15.1277
  30   2.0000      -0.547964       -14.9109
  31   2.0000      -0.532744       -14.4967
  32   2.0000      -0.520348       -14.1594
  33   2.0000      -0.505891       -13.7660
  34   2.0000      -0.498070       -13.5532
  35   2.0000      -0.483183       -13.1481
  36   2.0000      -0.465998       -12.6805
  37   2.0000      -0.457300       -12.4438
  38   2.0000      -0.447448       -12.1757
  39   2.0000      -0.434842       -11.8326
  40   2.0000      -0.430060       -11.7025
  41   2.0000      -0.425108       -11.5678
  42   2.0000      -0.416761       -11.3406
  43   2.0000      -0.413814       -11.2604
  44   2.0000      -0.398137       -10.8339
  45   2.0000      -0.391897       -10.6640
  46   2.0000      -0.379149       -10.3172
  47   2.0000      -0.372295       -10.1307
  48   2.0000      -0.371082       -10.0977
  49   2.0000      -0.364180        -9.9098
  50   2.0000      -0.362009        -9.8508
  51   2.0000      -0.228741        -6.2244
  52   0.0000       0.030145         0.8203
  53   0.0000       0.038488         1.0473
  54   0.0000       0.042113         1.1459
  55   0.0000       0.046690         1.2705
  56   0.0000       0.058678         1.5967

MULLIKEN ATOMIC CHARGES
-----------------------
   0 C :   -0.665444
   1 C :   -0.719525
   2 H :    0.334764
   3 C :   -0.366657
   4 H :    0.306005
   5 H :    0.264850
   6 H :    0.325542
   7 C :   -0.657559
   8 H :    0.318728
   9 C :   -0.742881
  10 H :    0.300745
  11 C :   -0.738097
  12 H :    0.307876
  13 H :    0.299157
  14 C :    0.348262
  15 H :    0.323076
  16 H :    0.347286
  17 H :   -0.299779
  18 C :   -0.642926
  19 H :    0.362819
  20 H :    0.311233
  21 H :    0.356663
  22 C :   -0.423398
  23 H :    0.293974
  24 H :    0.323380
  25 F :   -0.459881
  26 C :    0.042149
  27 N :   -0.339856
  28 C :   -1.334642
  29 H :    0.377968
  30 H :    0.713134
  31 H :    0.151623
  32 H :    0.378937
  33 H :    0.341535
  34 H :    0.260937
Sum of atomic charges:   -0.0000000

LOEWDIN ATOMIC CHARGES
----------------------
   0 C :   -0.143520
   1 C :   -0.196212
   2 H :    0.107955
   3 C :   -0.214441
   4 H :    0.107845
   5 H :    0.089246
   6 H :    0.117862
   7 C :   -0.212023
   8 H :    0.096281
   9 C :   -0.207026
  10 H :    0.115783
  11 C :   -0.215800
  12 H :    0.109684
  13 H :    0.108878
  14 C :   -0.219823
  15 H :    0.106434
  16 H :    0.112323
  17 H :    0.077931
  18 C :   -0.179002
  19 H :    0.126096
  20 H :    0.119479
  21 H :    0.121434
  22 C :   -0.187901
  23 H :    0.123526
  24 H :    0.127785
  25 F :   -0.087237
  26 C :   -0.483757
  27 N :    0.104273
  28 C :    0.023525
  29 H :    0.037688
  30 H :    0.006127
  31 H :    0.112459
  32 H :    0.069980
  33 H :    0.104701
  34 H :    0.119448

  Mayer bond orders larger than 0.100000
B(  0-C ,  1-C ) :   0.7776 B(  0-C ,  7-C ) :   0.1078 B(  0-C , 26-C ) :   0.5654
B(  0-C , 33-H ) :   0.9733 B(  0-C , 34-H ) :   0.9928 B(  1-C ,  2-H ) :   0.9222
B(  1-C ,  3-C ) :   0.8242 B(  1-C ,  4-H ) :   0.9473 B(  1-C ,  7-C ) :   0.1240
B(  1-C , 28-C ) :   0.1054 B(  3-C ,  5-H ) :   1.0814 B(  3-C ,  6-H ) :   0.8820
B(  3-C ,  7-C ) :   0.4397 B(  3-C , 11-C ) :   0.1254 B(  7-C ,  8-H ) :   1.0178
B(  7-C ,  9-C ) :   0.8111 B(  7-C , 10-H ) :   0.9449 B(  9-C , 11-C ) :   0.7892
B(  9-C , 12-H ) :   0.9689 B(  9-C , 13-H ) :   0.9873 B( 11-C , 14-C ) :   0.4572
B( 11-C , 15-H ) :   0.9760 B( 11-C , 16-H ) :   0.9133 B( 11-C , 17-H ) :  -0.1146
B( 11-C , 18-C ) :   0.2942 B( 14-C , 17-H ) :   1.3096 B( 14-C , 18-C ) :   0.5892
B( 14-C , 19-H ) :   0.8014 B( 14-C , 22-C ) :   0.1065 B( 14-C , 27-N ) :  -0.1923
B( 17-H , 19-H ) :   0.1236 B( 18-C , 20-H ) :   0.9145 B( 18-C , 21-H ) :   0.9418
B( 18-C , 22-C ) :   0.7565 B( 22-C , 23-H ) :   0.9709 B( 22-C , 24-H ) :   0.9252
B( 22-C , 25-F ) :   0.7987 B( 25-F , 30-H ) :  -0.1121 B( 26-C , 27-N ) :   1.0895
B( 26-C , 28-C ) :   1.6082 B( 26-C , 30-H ) :  -0.1214 B( 26-C , 33-H ) :  -0.1418
B( 27-N , 31-H ) :   0.9672 B( 27-N , 32-H ) :   0.8176 B( 28-C , 29-H ) :   0.9304
B( 28-C , 30-H ) :   0.6773

FINAL SINGLE POINT ENERGY      -586.867843224409

DIPOLE MOMENT
-------------
                                X             Y             Z
Electronic contribution:     -2.80536       0.00114      10.65849
Nuclear contribution   :      1.85154       0.58682     -11.15333
                        -----------------------------------------
Total Dipole Moment    :     -0.95383       0.58796      -0.49484
                        -----------------------------------------
Magnitude (a.u.)       :      1.22489
Magnitude (Debye)      :      3.11342

Rotational constants in cm-1:     0.028379     0.022321     0.014415
Rotational constants in MHz :   850.785777   669.176075   432.155504

                             ****ORCA TERMINATED NORMALLY****
TOTAL RUN TIME: 0 days 0 hours 10 minutes 3 seconds 949 msec
