                         Program Version 5.0.0 -  RELEASE  -
|  1> !PBE D3BJ RIJCOSX def2-TZVP def2/J TightSCF
|  2> *xyz -1 1
|  3> C         -2.79070       -0.78527        5.70281
|  4> C         -2.45380        0.05510        6.94145
|  5> C         -2.07842        1.48042        6.56410
|  6> H         -1.62558       -0.38216        7.49891
|  7> H         -3.32527        0.08775        7.59917
|  8> O         -0.90125        1.85816        6.82810
|  9> O         -2.93658        2.17731        5.96415
| 10> H         -1.94052       -0.82114        5.05412
| 11> H         -3.61590       -0.34261        5.18514
| 12> H         -3.05063       -1.77815        6.00536
| 13> *
| 14> %MaxCore 64000
| 15>
| 16> %pal nprocs 4
| 17> end
| 18>
| 19> %scf
| 20>   MaxIter 150
| 21> end
| 22>
| 23>
| 24>                          ****END OF INPUT****

CARTESIAN COORDINATES (ANGSTROEM)
---------------------------------
  C     -2.790700   -0.785270    5.702810
  C     -2.453800    0.055100    6.941450
  C     -2.078420    1.480420    6.564100
  H     -1.625580   -0.382160    7.498910
  H     -3.325270    0.087750    7.599170
  O     -0.901250    1.858160    6.828100
  O     -2.936580    2.177310    5.964150
  H     -1.940520   -0.821140    5.054120
  H     -3.615900   -0.342610    5.185140
  H     -3.050630   -1.778150    6.005360

 Total Charge           Charge          ....   -1
 Multiplicity           Mult            ....    1
 Number of Electrons    NEL             ....   40
 Basis Dimension        Dim             ....  185

ORBITAL ENERGIES
----------------

  NO   OCC          E(Eh)            E(eV)
   0   2.0000     -18.473924      -502.7010
   1   2.0000     -18.471871      -502.6452
   2   2.0000      -9.742784      -265.1146
   3   2.0000      -9.712317      -264.2856
   4   2.0000      -9.699494      -263.9366
   5   2.0000      -0.718765       -19.5586
   6   2.0000      -0.630041       -17.1443
   7   2.0000      -0.528558       -14.3828
   8   2.0000      -0.405084       -11.0229
   9   2.0000      -0.261489        -7.1155
  10   2.0000      -0.238378        -6.4866
  11   2.0000      -0.202338        -5.5059
  12   2.0000      -0.176911        -4.8140
  13   2.0000      -0.159886        -4.3507
  14   2.0000      -0.150258        -4.0887
  15   2.0000      -0.120551        -3.2804
  16   2.0000      -0.109009        -2.9663
  17   2.0000       0.000570         0.0155
  18   2.0000       0.012853         0.3497
  19   2.0000       0.031976         0.8701
  20   0.0000       0.166234         4.5235
  21   0.0000       0.207421         5.6442
  22   0.0000       0.217449         5.9171
  23   0.0000       0.229991         6.2584
  24   0.0000       0.236133         6.4255

MULLIKEN ATOMIC CHARGES
-----------------------
   0 C :   -0.326129
   1 C :   -0.114483
   2 C :    0.115315
   3 H :    0.027373
   4 H :    0.025315
   5 O :   -0.482342
   6 O :   -0.475751
   7 H :    0.088169
   8 H :    0.087032
   9 H :    0.055502
Sum of atomic charges:   -1.0000000

LOEWDIN ATOMIC CHARGES
----------------------
   0 C :   -0.330969
   1 C :   -0.301425
   2 C :   -0.730459
   3 H :    0.117068
   4 H :    0.119274
   5 O :   -0.098138
   6 O :   -0.087999
   7 H :    0.109295
   8 H :    0.109954
   9 H :    0.093399

  Mayer bond orders larger than 0.100000
B(  0-C ,  1-C ) :   0.9782 B(  0-C ,  7-H ) :   0.9784 B(  0-C ,  8-H ) :   0.9616
B(  0-C ,  9-H ) :   0.9605 B(  1-C ,  2-C ) :   0.9337 B(  1-C ,  3-H ) :   0.9329
B(  1-C ,  4-H ) :   0.9332 B(  2-C ,  5-O ) :   1.9242 B(  2-C ,  6-O ) :   1.8926

Dispersion correction           -0.006548795
FINAL SINGLE POINT ENERGY      -267.635389208840

DIPOLE MOMENT
-------------
                                X             Y             Z
Electronic contribution:      1.70162       5.75683       0.64910
Nuclear contribution   :     -2.24498      -7.51881      -0.57245
                        -----------------------------------------
Total Dipole Moment    :     -0.54337      -1.76197       0.07665
                        -----------------------------------------
Magnitude (a.u.)       :      1.84545
Magnitude (Debye)      :      4.69076

Rotational constants in cm-1:     0.305589     0.135336     0.107479
Rotational constants in MHz :  9161.317320  4057.276612  3222.126231

                             ****ORCA TERMINATED NORMALLY****
TOTAL RUN TIME: 0 days 0 hours 0 minutes 10 seconds 689 msec
