                         Program Version 5.0.0 -  RELEASE  -
|  1> !PBE D3BJ RIJCOSX def2-TZVP def2/J TightSCF
|  2> *xyz 1 1
|  3> C         -0.69912        3.48945        3.75516
|  4> H         -0.96672        4.34901        3.14049
|  5> N         -1.08067        3.79296        5.15686
|  6> C          0.77696        3.13839        3.61741
|  7> H         -1.33146        2.65651        3.44632
|  8> H         -0.87449        4.76274        5.42734
|  9> H         -0.68079        3.13476        5.83900
| 10> H         -2.05755        3.53169        5.34620
| 11> H          0.99957        2.92898        2.59199
| 12> H          0.99576        2.27685        4.21303
| 13> H          1.37223        3.96279        3.95046
| 14> *
| 15> %MaxCore 64000
| 16>
| 17> %pal nprocs 4
| 18> end
| 19>
| 20> %scf
| 21>   MaxIter 150
| 22> end
| 23>
| 24>
| 25>                          ****END OF INPUT****

CARTESIAN COORDINATES (ANGSTROEM)
---------------------------------
  C     -0.699120    3.489450    3.755160
  H     -0.966720    4.349010    3.140490
  N     -1.080670    3.792960    5.156860
  C      0.776960    3.138390    3.617410
  H     -1.331460    2.656510    3.446320
  H     -0.874490    4.762740    5.427340
  H     -0.680790    3.134760    5.839000
  H     -2.057550    3.531690    5.346200
  H      0.999570    2.928980    2.591990
  H      0.995760    2.276850    4.213030
  H      1.372230    3.962790    3.950460

 Total Charge           Charge          ....    1
 Multiplicity           Mult            ....    1
 Number of Electrons    NEL             ....   26
 Basis Dimension        Dim             ....  141

ORBITAL ENERGIES
----------------

  NO   OCC          E(Eh)            E(eV)
   0   2.0000     -14.318366      -389.6226
   1   2.0000     -10.134536      -275.7747
   2   2.0000     -10.054461      -273.5958
   3   2.0000      -1.139204       -30.9993
   4   2.0000      -0.898696       -24.4548
   5   2.0000      -0.786060       -21.3898
   6   2.0000      -0.763913       -20.7871
   7   2.0000      -0.716682       -19.5019
   8   2.0000      -0.652350       -17.7513
   9   2.0000      -0.596038       -16.2190
  10   2.0000      -0.538836       -14.6625
  11   2.0000      -0.525183       -14.2910
  12   2.0000      -0.507395       -13.8069
  13   0.0000      -0.221210        -6.0194
  14   0.0000      -0.163563        -4.4508
  15   0.0000      -0.159576        -4.3423
  16   0.0000      -0.136472        -3.7136
  17   0.0000      -0.097475        -2.6524

MULLIKEN ATOMIC CHARGES
-----------------------
   0 C :   -0.203043
   1 H :    0.192812
   2 N :   -0.260271
   3 C :   -0.351106
   4 H :    0.181302
   5 H :    0.328718
   6 H :    0.310143
   7 H :    0.320554
   8 H :    0.180488
   9 H :    0.150050
  10 H :    0.150355
Sum of atomic charges:    1.0000000

LOEWDIN ATOMIC CHARGES
----------------------
   0 C :   -0.285293
   1 H :    0.155641
   2 N :    0.172761
   3 C :   -0.278631
   4 H :    0.153794
   5 H :    0.222737
   6 H :    0.220274
   7 H :    0.223881
   8 H :    0.150004
   9 H :    0.131873
  10 H :    0.132960

  Mayer bond orders larger than 0.100000
B(  0-C ,  1-H ) :   0.9444 B(  0-C ,  2-N ) :   0.8836 B(  0-C ,  3-C ) :   1.0266
B(  0-C ,  4-H ) :   0.9420 B(  2-N ,  5-H ) :   0.8727 B(  2-N ,  6-H ) :   0.8782
B(  2-N ,  7-H ) :   0.8815 B(  3-C ,  8-H ) :   0.9500 B(  3-C ,  9-H ) :   0.9535
B(  3-C , 10-H ) :   0.9545

Dispersion correction           -0.006131728
FINAL SINGLE POINT ENERGY      -135.395130036341

DIPOLE MOMENT
-------------
                                X             Y             Z
Electronic contribution:     -1.31944       0.57024       1.09269
Nuclear contribution   :      0.33986      -0.24565       0.10678
                        -----------------------------------------
Total Dipole Moment    :     -0.97959       0.32458       1.19947
                        -----------------------------------------
Magnitude (a.u.)       :      1.58230
Magnitude (Debye)      :      4.02190

Rotational constants in cm-1:     1.016237     0.277523     0.247812
Rotational constants in MHz : 30466.024354  8319.937961  7429.230177

                             ****ORCA TERMINATED NORMALLY****
TOTAL RUN TIME: 0 days 0 hours 0 minutes 6 seconds 149 msec
