                         Program Version 5.0.0 -  RELEASE  -
|  1> !PBE D3BJ RIJCOSX def2-TZVP def2/J TightSCF
|  2> *xyz 0 1
|  3> C         -2.79070       -0.78527        5.70281
|  4> C         -2.45380        0.05510        6.94145
|  5> C         -2.07842        1.48042        6.56410
|  6> H         -1.62558       -0.38216        7.49891
|  7> H         -3.32527        0.08775        7.59917
|  8> F         -0.90125        1.85816        6.82810
|  9> O         -2.93658        2.17731        5.96415
| 10> H         -1.94052       -0.82114        5.05412
| 11> H         -3.61590       -0.34261        5.18514
| 12> H         -3.05063       -1.77815        6.00536
| 13> *
| 14> %MaxCore 64000
| 15>
| 16> %pal nprocs 4
| 17> end
| 18>
| 19> %scf
| 20>   MaxIter 150
| 21> end
| 22>
| 23>
| 24>                          ****END OF INPUT****

CARTESIAN COORDINATES (ANGSTROEM)
---------------------------------
  C     -2.790700   -0.785270    5.702810
  C     -2.453800    0.055100    6.941450
  C     -2.078420    1.480420    6.564100
  H     -1.625580   -0.382160    7.498910
  H     -3.325270    0.087750    7.599170
  F     -0.901250    1.858160    6.828100
  O     -2.936580    2.177310    5.964150
  H     -1.940520   -0.821140    5.054120
  H     -3.615900   -0.342610    5.185140
  H     -3.050630   -1.778150    6.005360

 Total Charge           Charge          ....    0
 Multiplicity           Mult            ....    1
 Number of Electrons    NEL             ....   40
 Basis Dimension        Dim             ....  185

ORBITAL ENERGIES
----------------

  NO   OCC          E(Eh)            E(eV)
   0   2.0000     -24.321061      -661.8097
   1   2.0000     -18.751492      -510.2540
   2   2.0000     -10.045362      -273.3482
   3   2.0000      -9.911856      -269.7153
   4   2.0000      -9.885587      -269.0005
   5   2.0000      -1.207718       -32.8637
   6   2.0000      -0.942582       -25.6490
   7   2.0000      -0.728999       -19.8371
   8   2.0000      -0.622423       -16.9370
   9   2.0000      -0.573217       -15.5980
  10   2.0000      -0.484883       -13.1943
  11   2.0000      -0.469980       -12.7888
  12   2.0000      -0.449685       -12.2365
  13   2.0000      -0.414878       -11.2894
  14   2.0000      -0.383784       -10.4433
  15   2.0000      -0.355132        -9.6636
  16   2.0000      -0.333460        -9.0739
  17   2.0000      -0.328565        -8.9407
  18   2.0000      -0.305403        -8.3104
  19   2.0000      -0.243118        -6.6156
  20   0.0000      -0.067116        -1.8263
  21   0.0000       0.014761         0.4017
  22   0.0000       0.053431         1.4539
  23   0.0000       0.064929         1.7668
  24   0.0000       0.076556         2.0832

MULLIKEN ATOMIC CHARGES
-----------------------
   0 C :   -0.354469
   1 C :   -0.196202
   2 C :    0.300862
   3 H :    0.104001
   4 H :    0.124706
   5 F :   -0.067696
   6 O :   -0.293151
   7 H :    0.119049
   8 H :    0.139089
   9 H :    0.123811
Sum of atomic charges:    0.0000000

LOEWDIN ATOMIC CHARGES
----------------------
   0 C :   -0.289178
   1 C :   -0.265874
   2 C :   -0.527602
   3 H :    0.139529
   4 H :    0.156214
   5 F :    0.332024
   6 O :    0.085552
   7 H :    0.121573
   8 H :    0.126653
   9 H :    0.121109

  Mayer bond orders larger than 0.100000
B(  0-C ,  1-C ) :   0.9911 B(  0-C ,  7-H ) :   0.9701 B(  0-C ,  8-H ) :   0.9643
B(  0-C ,  9-H ) :   0.9615 B(  1-C ,  2-C ) :   1.0022 B(  1-C ,  3-H ) :   0.9428
B(  1-C ,  4-H ) :   0.9312 B(  2-C ,  5-F ) :   1.1895 B(  2-C ,  6-O ) :   2.0798

Dispersion correction           -0.006221859
FINAL SINGLE POINT ENERGY      -292.193583206228

DIPOLE MOMENT
-------------
                                X             Y             Z
Electronic contribution:      3.96569       7.49052       1.46386
Nuclear contribution   :     -3.69486      -8.49563      -1.04945
                        -----------------------------------------
Total Dipole Moment    :      0.27084      -1.00511       0.41440
                        -----------------------------------------
Magnitude (a.u.)       :      1.12042
Magnitude (Debye)      :      2.84788

Rotational constants in cm-1:     0.293725     0.129218     0.102393
Rotational constants in MHz :  8805.653529  3873.869810  3069.666716

                             ****ORCA TERMINATED NORMALLY****
TOTAL RUN TIME: 0 days 0 hours 0 minutes 7 seconds 464 msec
