                         Program Version 5.0.0 -  RELEASE  -
|  1> !PBE D3BJ RIJCOSX def2-TZVP def2/J TightSCF
|  2> *xyz 0 1
|  3> C         -0.69912        3.48945        3.75516
|  4> H         -0.96672        4.34901        3.14049
|  5> C         -1.08067        3.79296        5.15686
|  6> C          0.77696        3.13839        3.61741
|  7> H         -1.33146        2.65651        3.44632
|  8> H         -0.87449        4.76274        5.42734
|  9> H         -0.68079        3.13476        5.83900
| 10> H         -2.05755        3.53169        5.34620
| 11> H          0.99957        2.92898        2.59199
| 12> H          0.99576        2.27685        4.21303
| 13> H          1.37223        3.96279        3.95046
| 14> *
| 15> %MaxCore 64000
| 16>
| 17> %pal nprocs 4
| 18> end
| 19>
| 20> %scf
| 21>   MaxIter 150
| 22> end
| 23>
| 24>
| 25>                          ****END OF INPUT****

CARTESIAN COORDINATES (ANGSTROEM)
---------------------------------
  C     -0.699120    3.489450    3.755160
  H     -0.966720    4.349010    3.140490
  C     -1.080670    3.792960    5.156860
  C      0.776960    3.138390    3.617410
  H     -1.331460    2.656510    3.446320
  H     -0.874490    4.762740    5.427340
  H     -0.680790    3.134760    5.839000
  H     -2.057550    3.531690    5.346200
  H      0.999570    2.928980    2.591990
  H      0.995760    2.276850    4.213030
  H      1.372230    3.962790    3.950460

 Total Charge           Charge          ....    0
 Multiplicity           Mult            ....    1
 Number of Electrons    NEL             ....   26
 Basis Dimension        Dim             ....  141

ORBITAL ENERGIES
----------------

  NO   OCC          E(Eh)            E(eV)
   0   2.0000      -9.867897      -268.5191
   1   2.0000      -9.857060      -268.2243
   2   2.0000      -9.839361      -267.7426
   3   2.0000      -0.717870       -19.5342
   4   2.0000      -0.624371       -16.9900
   5   2.0000      -0.527850       -14.3635
   6   2.0000      -0.422019       -11.4837
   7   2.0000      -0.391167       -10.6442
   8   2.0000      -0.354187        -9.6379
   9   2.0000      -0.350274        -9.5315
  10   2.0000      -0.297834        -8.1045
  11   2.0000      -0.286122        -7.7858
  12   2.0000      -0.283388        -7.7114
  13   0.0000       0.021835         0.5942
  14   0.0000       0.064419         1.7529
  15   0.0000       0.069961         1.9037
  16   0.0000       0.072032         1.9601
  17   0.0000       0.095227         2.5913

MULLIKEN ATOMIC CHARGES
-----------------------
   0 C :   -0.153322
   1 H :    0.088979
   2 C :   -0.350221
   3 C :   -0.328769
   4 H :    0.086261
   5 H :    0.111384
   6 H :    0.107178
   7 H :    0.116282
   8 H :    0.111207
   9 H :    0.106296
  10 H :    0.104724
Sum of atomic charges:    0.0000000

LOEWDIN ATOMIC CHARGES
----------------------
   0 C :   -0.326305
   1 H :    0.133362
   2 C :   -0.315838
   3 C :   -0.310406
   4 H :    0.134317
   5 H :    0.108829
   6 H :    0.113132
   7 H :    0.114220
   8 H :    0.115624
   9 H :    0.116147
  10 H :    0.116916

  Mayer bond orders larger than 0.100000
B(  0-C ,  1-H ) :   0.9619 B(  0-C ,  2-C ) :   1.0060 B(  0-C ,  3-C ) :   1.0069
B(  0-C ,  4-H ) :   0.9617 B(  2-C ,  5-H ) :   0.9721 B(  2-C ,  6-H ) :   0.9730
B(  2-C ,  7-H ) :   0.9731 B(  3-C ,  8-H ) :   0.9702 B(  3-C ,  9-H ) :   0.9719
B(  3-C , 10-H ) :   0.9719

Dispersion correction           -0.006129553
FINAL SINGLE POINT ENERGY      -118.986492274570

DIPOLE MOMENT
-------------
                                X             Y             Z
Electronic contribution:     -0.14638       0.11970      -0.39569
Nuclear contribution   :      0.10024      -0.14218       0.41628
                        -----------------------------------------
Total Dipole Moment    :     -0.04614      -0.02248       0.02059
                        -----------------------------------------
Magnitude (a.u.)       :      0.05530
Magnitude (Debye)      :      0.14057

Rotational constants in cm-1:     1.024179     0.291605     0.259489
Rotational constants in MHz : 30704.103454  8742.106283  7779.285909

                             ****ORCA TERMINATED NORMALLY****
TOTAL RUN TIME: 0 days 0 hours 0 minutes 6 seconds 248 msec
