                         Program Version 5.0.0 -  RELEASE  -
|  1> !PBE D3BJ RIJCOSX def2-TZVP def2/J TightSCF
|  2> *xyz 0 1
|  3> C         -2.79070       -0.78527        5.70281
|  4> C         -2.45380        0.05510        6.94145
|  5> C         -2.07842        1.48042        6.56410
|  6> H         -1.62558       -0.38216        7.49891
|  7> H         -3.32527        0.08775        7.59917
|  8> O         -0.90125        1.85816        6.82810
|  9> F         -2.93658        2.17731        5.96415
| 10> H         -1.94052       -0.82114        5.05412
| 11> H         -3.61590       -0.34261        5.18514
| 12> H         -3.05063       -1.77815        6.00536
| 13> *
| 14> %MaxCore 64000
| 15>
| 16> %pal nprocs 4
| 17> end
| 18>
| 19> %scf
| 20>   MaxIter 150
| 21> end
| 22>
| 23>
| 24>                          ****END OF INPUT****

CARTESIAN COORDINATES (ANGSTROEM)
---------------------------------
  C     -2.790700   -0.785270    5.702810
  C     -2.453800    0.055100    6.941450
  C     -2.078420    1.480420    6.564100
  H     -1.625580   -0.382160    7.498910
  H     -3.325270    0.087750    7.599170
  O     -0.901250    1.858160    6.828100
  F     -2.936580    2.177310    5.964150
  H     -1.940520   -0.821140    5.054120
  H     -3.615900   -0.342610    5.185140
  H     -3.050630   -1.778150    6.005360

 Total Charge           Charge          ....    0
 Multiplicity           Mult            ....    1
 Number of Electrons    NEL             ....   40
 Basis Dimension        Dim             ....  185

ORBITAL ENERGIES
----------------

  NO   OCC          E(Eh)            E(eV)
   0   2.0000     -24.324107      -661.8926
   1   2.0000     -18.749396      -510.1970
   2   2.0000     -10.045140      -273.3422
   3   2.0000      -9.911401      -269.7029
   4   2.0000      -9.889460      -269.1059
   5   2.0000      -1.212817       -33.0024
   6   2.0000      -0.937639       -25.5144
   7   2.0000      -0.731964       -19.9177
   8   2.0000      -0.620360       -16.8808
   9   2.0000      -0.579513       -15.7694
  10   2.0000      -0.488587       -13.2951
  11   2.0000      -0.475395       -12.9361
  12   2.0000      -0.445272       -12.1165
  13   2.0000      -0.414994       -11.2926
  14   2.0000      -0.385555       -10.4915
  15   2.0000      -0.357186        -9.7195
  16   2.0000      -0.335656        -9.1337
  17   2.0000      -0.331427        -9.0186
  18   2.0000      -0.307179        -8.3588
  19   2.0000      -0.236609        -6.4385
  20   0.0000      -0.064638        -1.7589
  21   0.0000       0.011147         0.3033
  22   0.0000       0.052801         1.4368
  23   0.0000       0.068001         1.8504
  24   0.0000       0.081340         2.2134

MULLIKEN ATOMIC CHARGES
-----------------------
   0 C :   -0.359390
   1 C :   -0.192276
   2 C :    0.294491
   3 H :    0.127896
   4 H :    0.111233
   5 O :   -0.296877
   6 F :   -0.065808
   7 H :    0.129819
   8 H :    0.123049
   9 H :    0.127863
Sum of atomic charges:    0.0000000

LOEWDIN ATOMIC CHARGES
----------------------
   0 C :   -0.295340
   1 C :   -0.262127
   2 C :   -0.530489
   3 H :    0.152594
   4 H :    0.148338
   5 O :    0.075431
   6 F :    0.343810
   7 H :    0.123854
   8 H :    0.121207
   9 H :    0.122722

  Mayer bond orders larger than 0.100000
B(  0-C ,  1-C ) :   0.9781 B(  0-C ,  7-H ) :   0.9685 B(  0-C ,  8-H ) :   0.9671
B(  0-C ,  9-H ) :   0.9614 B(  1-C ,  2-C ) :   1.0209 B(  1-C ,  3-H ) :   0.9521
B(  1-C ,  4-H ) :   0.9242 B(  2-C ,  5-O ) :   2.0882 B(  2-C ,  6-F ) :   1.1832

Dispersion correction           -0.006189703
FINAL SINGLE POINT ENERGY      -292.191156644075

DIPOLE MOMENT
-------------
                                X             Y             Z
Electronic contribution:      0.61634       7.99053       0.04797
Nuclear contribution   :     -1.47571      -8.84360      -0.10748
                        -----------------------------------------
Total Dipole Moment    :     -0.85938      -0.85308      -0.05951
                        -----------------------------------------
Magnitude (a.u.)       :      1.21236
Magnitude (Debye)      :      3.08157

Rotational constants in cm-1:     0.283081     0.133379     0.103386
Rotational constants in MHz :  8486.545774  3998.599544  3099.448040

                             ****ORCA TERMINATED NORMALLY****
TOTAL RUN TIME: 0 days 0 hours 0 minutes 7 seconds 480 msec
