                         Program Version 5.0.0 -  RELEASE  -
|  1> !PBE D3BJ RIJCOSX def2-TZVP def2/J TightSCF xyzfile
|  2>
|  3> *xyzfile 0 1 D2.xyz
|  4>
|  5> %MaxCore 64000
|  6>
|  7> %pal nprocs 18
|  8> end
|  9>
| 10> %scf
| 11>   MaxIter 150
| 12> end
| 13>
| 14>
| 15>                          ****END OF INPUT****

CARTESIAN COORDINATES (ANGSTROEM)
---------------------------------
  C     -0.699123    3.489451    3.755163
  H     -0.966716    4.349013    3.140491
  C     -1.080669    3.792957    5.156857
  C      0.776956    3.138391    3.617408
  H     -1.331455    2.656510    3.446323
  H      1.371398    3.888342    4.149744
  H      1.046926    3.232057    2.561331
  C      1.118917    1.731170    4.115155
  H      2.200573    1.654226    4.254882
  C      0.659466    0.635182    3.153306
  H      0.677024    1.576674    5.103150
  H      1.312288    0.638870    2.274207
  H     -0.339563    0.868049    2.772876
  C      0.639957   -0.771175    3.755619
  C     -0.341821   -0.965537    4.915046
  H      1.648266   -1.028665    4.097015
  H      0.398568   -1.482386    2.958453
  H     -0.279892   -2.005646    5.252547
  C     -1.789164   -0.639231    4.557496
  H     -0.032380   -0.352918    5.765118
  H     -2.107151   -1.270102    3.719619
  H     -1.856352    0.391636    4.197604
  C     -2.790700   -0.785275    5.702812
  H     -2.867308   -1.835651    6.001675
  H     -3.774554   -0.486577    5.334807
  C     -2.453797    0.055101    6.941445
  C     -2.078419    1.480421    6.564098
  H     -1.625584   -0.382163    7.498914
  H     -3.325274    0.087746    7.599175
  H     -0.874488    4.762737    5.427344
  H     -0.680793    3.134762    5.839000
  H     -2.057550    3.531691    5.346197
  O     -0.901252    1.858156    6.828104
  F     -2.936582    2.177309    5.964151

 Total Charge           Charge          ....    0
 Multiplicity           Mult            ....    1
 Number of Electrons    NEL             ....  104
 Basis Dimension        Dim             ....  529

ORBITAL ENERGIES
----------------

  NO   OCC          E(Eh)            E(eV)
   0   2.0000     -24.336103      -662.2190
   1   2.0000     -18.760527      -510.4999
   2   2.0000     -10.058638      -273.7095
   3   2.0000      -9.914443      -269.7857
   4   2.0000      -9.901453      -269.4322
   5   2.0000      -9.886014      -269.0121
   6   2.0000      -9.875891      -268.7366
   7   2.0000      -9.872287      -268.6386
   8   2.0000      -9.865244      -268.4469
   9   2.0000      -9.858825      -268.2723
  10   2.0000      -9.856279      -268.2030
  11   2.0000      -9.849819      -268.0272
  12   2.0000      -9.794864      -266.5318
  13   2.0000      -1.229005       -33.4429
  14   2.0000      -0.957681       -26.0598
  15   2.0000      -0.758250       -20.6330
  16   2.0000      -0.731009       -19.8918
  17   2.0000      -0.703849       -19.1527
  18   2.0000      -0.677556       -18.4372
  19   2.0000      -0.637189       -17.3388
  20   2.0000      -0.616535       -16.7768
  21   2.0000      -0.595167       -16.1953
  22   2.0000      -0.559568       -15.2266
  23   2.0000      -0.547407       -14.8957
  24   2.0000      -0.505753       -13.7622
  25   2.0000      -0.502429       -13.6718
  26   2.0000      -0.494551       -13.4574
  27   2.0000      -0.477895       -13.0042
  28   2.0000      -0.459941       -12.5156
  29   2.0000      -0.431479       -11.7411
  30   2.0000      -0.427597       -11.6355
  31   2.0000      -0.409264       -11.1366
  32   2.0000      -0.403300       -10.9744
  33   2.0000      -0.385647       -10.4940
  34   2.0000      -0.375511       -10.2182
  35   2.0000      -0.365530        -9.9466
  36   2.0000      -0.362321        -9.8593
  37   2.0000      -0.356203        -9.6928
  38   2.0000      -0.343012        -9.3338
  39   2.0000      -0.331966        -9.0333
  40   2.0000      -0.326500        -8.8845
  41   2.0000      -0.323251        -8.7961
  42   2.0000      -0.308150        -8.3852
  43   2.0000      -0.303298        -8.2532
  44   2.0000      -0.294808        -8.0221
  45   2.0000      -0.284215        -7.7339
  46   2.0000      -0.280147        -7.6232
  47   2.0000      -0.270873        -7.3708
  48   2.0000      -0.265136        -7.2147
  49   2.0000      -0.256240        -6.9726
  50   2.0000      -0.252323        -6.8661
  51   2.0000      -0.213385        -5.8065
  52   0.0000      -0.079278        -2.1573
  53   0.0000       0.004696         0.1278
  54   0.0000       0.027312         0.7432
  55   0.0000       0.027607         0.7512
  56   0.0000       0.038261         1.0411

MULLIKEN ATOMIC CHARGES
-----------------------
   0 C :   -0.175418
   1 H :    0.078117
   2 C :   -0.386703
   3 C :   -0.077876
   4 H :    0.068038
   5 H :    0.079399
   6 H :    0.069031
   7 C :   -0.225146
   8 H :    0.078047
   9 C :   -0.236044
  10 H :    0.121880
  11 H :    0.090690
  12 H :    0.105372
  13 C :   -0.092451
  14 C :   -0.261283
  15 H :    0.083618
  16 H :    0.084538
  17 H :    0.086428
  18 C :   -0.184071
  19 H :    0.132184
  20 H :    0.092490
  21 H :    0.095360
  22 C :   -0.185324
  23 H :    0.102738
  24 H :    0.110796
  25 C :   -0.191631
  26 C :    0.309590
  27 H :    0.137859
  28 H :    0.125767
  29 H :    0.094836
  30 H :    0.161361
  31 H :    0.080476
  32 O :   -0.303569
  33 F :   -0.069099
Sum of atomic charges:    0.0000000

LOEWDIN ATOMIC CHARGES
----------------------
   0 C :   -0.310002
   1 H :    0.132398
   2 C :   -0.336155
   3 C :   -0.268304
   4 H :    0.127750
   5 H :    0.137193
   6 H :    0.133663
   7 C :   -0.267601
   8 H :    0.134853
   9 C :   -0.274167
  10 H :    0.141429
  11 H :    0.136669
  12 H :    0.133940
  13 C :   -0.270101
  14 C :   -0.272078
  15 H :    0.138420
  16 H :    0.136433
  17 H :    0.137058
  18 C :   -0.271306
  19 H :    0.140514
  20 H :    0.141587
  21 H :    0.138374
  22 C :   -0.264353
  23 H :    0.142911
  24 H :    0.142182
  25 C :   -0.234883
  26 C :   -0.507442
  27 H :    0.156323
  28 H :    0.153122
  29 H :    0.101734
  30 H :    0.103962
  31 H :    0.103064
  32 O :    0.101296
  33 F :    0.361516

  Mayer bond orders larger than 0.100000
B(  0-C ,  1-H ) :   0.9457 B(  0-C ,  2-C ) :   0.9928 B(  0-C ,  3-C ) :   1.0089
B(  0-C ,  4-H ) :   0.9722 B(  2-C , 29-H ) :   0.9445 B(  2-C , 30-H ) :   0.9582
B(  2-C , 31-H ) :   0.9683 B(  3-C ,  5-H ) :   0.9431 B(  3-C ,  6-H ) :   0.9423
B(  3-C ,  7-C ) :   1.0093 B(  7-C ,  8-H ) :   0.9363 B(  7-C ,  9-C ) :   1.0013
B(  7-C , 10-H ) :   0.9695 B(  9-C , 11-H ) :   0.9414 B(  9-C , 12-H ) :   0.9679
B(  9-C , 13-C ) :   0.9903 B( 13-C , 14-C ) :   1.0141 B( 13-C , 15-H ) :   0.9463
B( 13-C , 16-H ) :   0.9478 B( 14-C , 17-H ) :   0.9410 B( 14-C , 18-C ) :   0.9791
B( 14-C , 19-H ) :   0.9618 B( 18-C , 20-H ) :   0.9439 B( 18-C , 21-H ) :   0.9590
B( 18-C , 22-C ) :   0.9997 B( 22-C , 23-H ) :   0.9433 B( 22-C , 24-H ) :   0.9531
B( 22-C , 25-C ) :   0.9711 B( 25-C , 26-C ) :   1.0139 B( 25-C , 27-H ) :   0.9599
B( 25-C , 28-H ) :   0.9233 B( 26-C , 32-O ) :   1.9697 B( 26-C , 33-F ) :   1.1490

Dispersion correction           -0.037796633
FINAL SINGLE POINT ENERGY      -606.313828192561

DIPOLE MOMENT
-------------
                                X             Y             Z
Electronic contribution:     -8.92203       3.06123       9.46536
Nuclear contribution   :      8.07181      -4.09641      -9.21610
                        -----------------------------------------
Total Dipole Moment    :     -0.85022      -1.03518       0.24926
                        -----------------------------------------
Magnitude (a.u.)       :      1.36257
Magnitude (Debye)      :      3.46338

Rotational constants in cm-1:     0.028400     0.023377     0.015073
Rotational constants in MHz :   851.414727   700.831775   451.871218

                             ****ORCA TERMINATED NORMALLY****
TOTAL RUN TIME: 0 days 0 hours 0 minutes 21 seconds 245 msec
