                         Program Version 5.0.0 -  RELEASE  -
|  1> !wB97X-D3 RIJCOSX def2-TZVP def2/J TightSCF
|  2> *xyz -1 1
|  3> C          4.26524        2.50052       -0.79589
|  4> C          4.98224        1.65026        0.24742
|  5> O          4.36806        1.38927        1.31371
|  6> O          6.12892        1.23351       -0.04562
|  7> H          4.90412        2.63966       -1.64287
|  8> H          4.02079        3.45265       -0.37328
|  9> H          3.36773        2.00584       -1.10356
| 10> *
| 11> %MaxCore 64000
| 12> %pal nprocs 8
| 13> end
| 14> %scf
| 15>   MaxIter 150
| 16> end
| 17>
| 18>
| 19>                          ****END OF INPUT****

CARTESIAN COORDINATES (ANGSTROEM)
---------------------------------
  C      4.265240    2.500520   -0.795890
  C      4.982240    1.650260    0.247420
  O      4.368060    1.389270    1.313710
  O      6.128920    1.233510   -0.045620
  H      4.904120    2.639660   -1.642870
  H      4.020790    3.452650   -0.373280
  H      3.367730    2.005840   -1.103560

 Total Charge           Charge          ....   -1
 Multiplicity           Mult            ....    1
 Number of Electrons    NEL             ....   32
 Basis Dimension        Dim             ....  142

ORBITAL ENERGIES
----------------

  NO   OCC          E(Eh)            E(eV)
   0   2.0000     -18.946888      -515.5710
   1   2.0000     -18.945497      -515.5332
   2   2.0000     -10.146562      -276.1020
   3   2.0000     -10.079029      -274.2643
   4   2.0000      -0.921166       -25.0662
   5   2.0000      -0.825678       -22.4678
   6   2.0000      -0.653699       -17.7881
   7   2.0000      -0.402508       -10.9528
   8   2.0000      -0.354870        -9.6565
   9   2.0000      -0.340323        -9.2606
  10   2.0000      -0.316037        -8.5998
  11   2.0000      -0.271556        -7.3894
  12   2.0000      -0.252431        -6.8690
  13   2.0000      -0.126716        -3.4481
  14   2.0000      -0.123761        -3.3677
  15   2.0000      -0.108477        -2.9518
  16   0.0000       0.286164         7.7869
  17   0.0000       0.330498         8.9933
  18   0.0000       0.357368         9.7245
  19   0.0000       0.386279        10.5112
  20   0.0000       0.393125        10.6975

MULLIKEN ATOMIC CHARGES
-----------------------
   0 C :   -0.301684
   1 C :    0.273352
   2 O :   -0.581981
   3 O :   -0.573402
   4 H :    0.061238
   5 H :    0.060225
   6 H :    0.062252
Sum of atomic charges:   -1.0000000

LOEWDIN ATOMIC CHARGES
----------------------
   0 C :   -0.324057
   1 C :   -0.716538
   2 O :   -0.136317
   3 O :   -0.128497
   4 H :    0.099558
   5 H :    0.102457
   6 H :    0.103393

  Mayer bond orders larger than 0.100000
B(  0-C ,  1-C ) :   0.9292 B(  0-C ,  4-H ) :   0.9745 B(  0-C ,  5-H ) :   0.9710
B(  0-C ,  6-H ) :   0.9710 B(  1-C ,  2-O ) :   1.8313 B(  1-C ,  3-O ) :   1.8450

Dispersion correction           -0.000903673
FINAL SINGLE POINT ENERGY      -228.547378293726

DIPOLE MOMENT
-------------
                                X             Y             Z
Electronic contribution:      1.70323      -2.02459       2.46182
Nuclear contribution   :     -2.34880       2.82033      -3.41655
                        -----------------------------------------
Total Dipole Moment    :     -0.64557       0.79573      -0.95473
                        -----------------------------------------
Magnitude (a.u.)       :      1.40052
Magnitude (Debye)      :      3.55984

Rotational constants in cm-1:     0.393413     0.334516     0.186969
Rotational constants in MHz : 11794.232386 10028.538646  5605.197050

                             ****ORCA TERMINATED NORMALLY****
TOTAL RUN TIME: 0 days 0 hours 0 minutes 7 seconds 901 msec
