                         Program Version 5.0.0 -  RELEASE  -
|  1> !wB97X-D3 RIJCOSX def2-TZVP def2/J TightSCF
|  2> *xyz 1 1
|  3> C          3.91385       -1.65829        3.01513
|  4> N          5.03927       -0.90115        2.49282
|  5> C          6.21038       -1.41726        2.17824
|  6> N          6.53591       -2.67712        2.55608
|  7> N          7.07675       -0.70082        1.47891
|  8> H          7.95464       -1.12155        1.20755
|  9> H          6.75616        0.10664        0.96028
| 10> H          4.84217        0.01761        2.11519
| 11> H          5.99388       -3.12692        3.28278
| 12> H          7.49844       -2.97548        2.46878
| 13> H          3.08844       -0.99893        3.18495
| 14> H          4.19412       -2.12366        3.93697
| 15> H          3.63051       -2.40965        2.30798
| 16> *
| 17> %MaxCore 64000
| 18> %pal nprocs 8
| 19> end
| 20> %scf
| 21>   MaxIter 150
| 22> end
| 23>
| 24>
| 25>                          ****END OF INPUT****

CARTESIAN COORDINATES (ANGSTROEM)
---------------------------------
  C      3.913850   -1.658290    3.015130
  N      5.039270   -0.901150    2.492820
  C      6.210380   -1.417260    2.178240
  N      6.535910   -2.677120    2.556080
  N      7.076750   -0.700820    1.478910
  H      7.954640   -1.121550    1.207550
  H      6.756160    0.106640    0.960280
  H      4.842170    0.017610    2.115190
  H      5.993880   -3.126920    3.282780
  H      7.498440   -2.975480    2.468780
  H      3.088440   -0.998930    3.184950
  H      4.194120   -2.123660    3.936970
  H      3.630510   -2.409650    2.307980

 Total Charge           Charge          ....    1
 Multiplicity           Mult            ....    1
 Number of Electrons    NEL             ....   40
 Basis Dimension        Dim             ....  203

ORBITAL ENERGIES
----------------

  NO   OCC          E(Eh)            E(eV)
   0   2.0000     -14.653561      -398.7437
   1   2.0000     -14.648082      -398.5946
   2   2.0000     -14.647209      -398.5708
   3   2.0000     -10.617721      -288.9229
   4   2.0000     -10.478642      -285.1383
   5   2.0000      -1.339650       -36.4537
   6   2.0000      -1.227367       -33.3983
   7   2.0000      -1.210732       -32.9457
   8   2.0000      -1.023327       -27.8462
   9   2.0000      -0.938056       -25.5258
  10   2.0000      -0.893522       -24.3140
  11   2.0000      -0.860252       -23.4086
  12   2.0000      -0.794792       -21.6274
  13   2.0000      -0.789376       -21.4800
  14   2.0000      -0.759649       -20.6711
  15   2.0000      -0.743063       -20.2198
  16   2.0000      -0.693220       -18.8635
  17   2.0000      -0.677847       -18.4452
  18   2.0000      -0.577252       -15.7078
  19   2.0000      -0.551936       -15.0189
  20   0.0000      -0.087341        -2.3767
  21   0.0000      -0.072121        -1.9625
  22   0.0000      -0.034521        -0.9394
  23   0.0000      -0.027855        -0.7580
  24   0.0000      -0.004700        -0.1279

MULLIKEN ATOMIC CHARGES
-----------------------
   0 C :   -0.286155
   1 N :   -0.289974
   2 C :    0.490238
   3 N :   -0.448440
   4 N :   -0.444562
   5 H :    0.299386
   6 H :    0.299575
   7 H :    0.271508
   8 H :    0.296203
   9 H :    0.293278
  10 H :    0.181359
  11 H :    0.149236
  12 H :    0.188347
Sum of atomic charges:    1.0000000

LOEWDIN ATOMIC CHARGES
----------------------
   0 C :   -0.260648
   1 N :    0.146250
   2 C :   -0.394906
   3 N :    0.048798
   4 N :    0.064945
   5 H :    0.200563
   6 H :    0.200750
   7 H :    0.212841
   8 H :    0.196189
   9 H :    0.197262
  10 H :    0.137239
  11 H :    0.122502
  12 H :    0.128216

  Mayer bond orders larger than 0.100000
B(  0-C ,  1-N ) :   0.8922 B(  0-C , 10-H ) :   0.9557 B(  0-C , 11-H ) :   0.9649
B(  0-C , 12-H ) :   0.9653 B(  1-N ,  2-C ) :   1.3991 B(  1-N ,  7-H ) :   0.9009
B(  2-C ,  3-N ) :   1.3183 B(  2-C ,  4-N ) :   1.3353 B(  3-N ,  8-H ) :   0.8895
B(  3-N ,  9-H ) :   0.8947 B(  4-N ,  5-H ) :   0.8921 B(  4-N ,  6-H ) :   0.8911

Dispersion correction           -0.002371491
FINAL SINGLE POINT ENERGY      -245.108418873178

DIPOLE MOMENT
-------------
                                X             Y             Z
Electronic contribution:      2.44849       0.86396      -0.97917
Nuclear contribution   :     -2.01473      -0.74897       0.69347
                        -----------------------------------------
Total Dipole Moment    :      0.43376       0.11499      -0.28570
                        -----------------------------------------
Magnitude (a.u.)       :      0.53197
Magnitude (Debye)      :      1.35216

Rotational constants in cm-1:     0.313249     0.134439     0.096258
Rotational constants in MHz :  9390.961986  4030.377472  2885.728233

                             ****ORCA TERMINATED NORMALLY****
TOTAL RUN TIME: 0 days 0 hours 0 minutes 18 seconds 186 msec
