                         Program Version 5.0.0 -  RELEASE  -
|  1> !wB97X-D3 RIJCOSX def2-TZVP def2/J TightSCF
|  2> *xyz 0 1
|  3> C          3.91385       -1.65829        3.01513
|  4> C          5.03927       -0.90115        2.49282
|  5> C          6.21038       -1.41726        2.17824
|  6> N          6.53591       -2.67712        2.55608
|  7> N          7.07675       -0.70082        1.47891
|  8> H          7.95464       -1.12155        1.20755
|  9> H          6.75616        0.10664        0.96028
| 10> H          4.84217        0.01761        2.11519
| 11> H          5.99388       -3.12692        3.28278
| 12> H          7.49844       -2.97548        2.46878
| 13> H          3.08844       -0.99893        3.18495
| 14> H          4.19412       -2.12366        3.93697
| 15> H          3.63051       -2.40965        2.30798
| 16> *
| 17> %MaxCore 64000
| 18> %pal nprocs 8
| 19> end
| 20> %scf
| 21>   MaxIter 150
| 22> end
| 23>
| 24>
| 25>                          ****END OF INPUT****

CARTESIAN COORDINATES (ANGSTROEM)
---------------------------------
  C      3.913850   -1.658290    3.015130
  C      5.039270   -0.901150    2.492820
  C      6.210380   -1.417260    2.178240
  N      6.535910   -2.677120    2.556080
  N      7.076750   -0.700820    1.478910
  H      7.954640   -1.121550    1.207550
  H      6.756160    0.106640    0.960280
  H      4.842170    0.017610    2.115190
  H      5.993880   -3.126920    3.282780
  H      7.498440   -2.975480    2.468780
  H      3.088440   -0.998930    3.184950
  H      4.194120   -2.123660    3.936970
  H      3.630510   -2.409650    2.307980

 Total Charge           Charge          ....    0
 Multiplicity           Mult            ....    1
 Number of Electrons    NEL             ....   40
 Basis Dimension        Dim             ....  203

ORBITAL ENERGIES
----------------

  NO   OCC          E(Eh)            E(eV)
   0   2.0000     -14.419625      -392.3779
   1   2.0000     -14.415348      -392.2616
   2   2.0000     -10.313913      -280.6558
   3   2.0000     -10.233712      -278.4735
   4   2.0000     -10.191041      -277.3123
   5   2.0000      -1.074899       -29.2495
   6   2.0000      -0.982679       -26.7401
   7   2.0000      -0.867366       -23.6022
   8   2.0000      -0.767004       -20.8712
   9   2.0000      -0.685963       -18.6660
  10   2.0000      -0.638911       -17.3857
  11   2.0000      -0.610396       -16.6097
  12   2.0000      -0.568114       -15.4592
  13   2.0000      -0.521391       -14.1878
  14   2.0000      -0.510635       -13.8951
  15   2.0000      -0.471053       -12.8180
  16   2.0000      -0.453594       -12.3429
  17   2.0000      -0.431816       -11.7503
  18   2.0000      -0.359478        -9.7819
  19   2.0000      -0.243089        -6.6148
  20   0.0000       0.103972         2.8292
  21   0.0000       0.134505         3.6601
  22   0.0000       0.149747         4.0748
  23   0.0000       0.167319         4.5530
  24   0.0000       0.178215         4.8495

MULLIKEN ATOMIC CHARGES
-----------------------
   0 C :   -0.323727
   1 C :   -0.328482
   2 C :    0.353950
   3 N :   -0.519853
   4 N :   -0.512066
   5 H :    0.226306
   6 H :    0.254996
   7 H :    0.075141
   8 H :    0.251932
   9 H :    0.224876
  10 H :    0.108025
  11 H :    0.078946
  12 H :    0.109956
Sum of atomic charges:    0.0000000

LOEWDIN ATOMIC CHARGES
----------------------
   0 C :   -0.316966
   1 C :   -0.313168
   2 C :   -0.457674
   3 N :   -0.032171
   4 N :   -0.020066
   5 H :    0.162393
   6 H :    0.178685
   7 H :    0.116926
   8 H :    0.174452
   9 H :    0.160923
  10 H :    0.121961
  11 H :    0.109092
  12 H :    0.115612

  Mayer bond orders larger than 0.100000
B(  0-C ,  1-C ) :   0.9950 B(  0-C , 10-H ) :   0.9908 B(  0-C , 11-H ) :   0.9797
B(  0-C , 12-H ) :   0.9764 B(  1-C ,  2-C ) :   1.7197 B(  1-C ,  7-H ) :   1.0057
B(  2-C ,  3-N ) :   1.1317 B(  2-C ,  4-N ) :   1.1328 B(  3-N ,  8-H ) :   0.9188
B(  3-N ,  9-H ) :   0.9271 B(  4-N ,  5-H ) :   0.9287 B(  4-N ,  6-H ) :   0.9180

Dispersion correction           -0.002373163
FINAL SINGLE POINT ENERGY      -228.626569365648

DIPOLE MOMENT
-------------
                                X             Y             Z
Electronic contribution:      3.05312       0.33459      -1.04121
Nuclear contribution   :     -2.16157      -0.63191       0.72436
                        -----------------------------------------
Total Dipole Moment    :      0.89155      -0.29732      -0.31685
                        -----------------------------------------
Magnitude (a.u.)       :      0.99180
Magnitude (Debye)      :      2.52095

Rotational constants in cm-1:     0.318470     0.135474     0.097247
Rotational constants in MHz :  9547.495553  4061.405016  2915.385882

                             ****ORCA TERMINATED NORMALLY****
TOTAL RUN TIME: 0 days 0 hours 0 minutes 18 seconds 180 msec
