                         Program Version 5.0.0 -  RELEASE  -
|  1> !wB97X-D3 RIJCOSX def2-TZVP def2/J TightSCF
|  2> *xyz 0 1
|  3> C          4.26524        2.50052       -0.79589
|  4> C          4.98224        1.65026        0.24742
|  5> O          4.36806        1.38927        1.31371
|  6> F          6.12892        1.23351       -0.04562
|  7> H          4.90412        2.63966       -1.64287
|  8> H          4.02079        3.45265       -0.37328
|  9> H          3.36773        2.00584       -1.10356
| 10> *
| 11> %MaxCore 64000
| 12> %pal nprocs 8
| 13> end
| 14> %scf
| 15>   MaxIter 150
| 16> end
| 17>
| 18>
| 19>                          ****END OF INPUT****

CARTESIAN COORDINATES (ANGSTROEM)
---------------------------------
  C      4.265240    2.500520   -0.795890
  C      4.982240    1.650260    0.247420
  O      4.368060    1.389270    1.313710
  F      6.128920    1.233510   -0.045620
  H      4.904120    2.639660   -1.642870
  H      4.020790    3.452650   -0.373280
  H      3.367730    2.005840   -1.103560

 Total Charge           Charge          ....    0
 Multiplicity           Mult            ....    1
 Number of Electrons    NEL             ....   32
 Basis Dimension        Dim             ....  142

ORBITAL ENERGIES
----------------

  NO   OCC          E(Eh)            E(eV)
   0   2.0000     -24.856422      -676.3776
   1   2.0000     -19.234922      -523.4088
   2   2.0000     -10.459194      -284.6091
   3   2.0000     -10.299732      -280.2700
   4   2.0000      -1.437555       -39.1179
   5   2.0000      -1.147194       -31.2167
   6   2.0000      -0.889681       -24.2094
   7   2.0000      -0.767944       -20.8968
   8   2.0000      -0.653722       -17.7887
   9   2.0000      -0.650407       -17.6985
  10   2.0000      -0.608759       -16.5652
  11   2.0000      -0.545696       -14.8491
  12   2.0000      -0.532151       -14.4806
  13   2.0000      -0.499580       -13.5943
  14   2.0000      -0.447171       -12.1682
  15   2.0000      -0.390942       -10.6381
  16   0.0000       0.057209         1.5567
  17   0.0000       0.117629         3.2009
  18   0.0000       0.181838         4.9481
  19   0.0000       0.199234         5.4214
  20   0.0000       0.207733         5.6527

MULLIKEN ATOMIC CHARGES
-----------------------
   0 C :   -0.350137
   1 C :    0.389372
   2 O :   -0.362228
   3 F :   -0.104594
   4 H :    0.125839
   5 H :    0.150463
   6 H :    0.151286
Sum of atomic charges:    0.0000000

LOEWDIN ATOMIC CHARGES
----------------------
   0 C :   -0.261050
   1 C :   -0.511341
   2 O :    0.050123
   3 F :    0.322555
   4 H :    0.122894
   5 H :    0.138176
   6 H :    0.138643

  Mayer bond orders larger than 0.100000
B(  0-C ,  1-C ) :   0.9927 B(  0-C ,  4-H ) :   0.9672 B(  0-C ,  5-H ) :   0.9534
B(  0-C ,  6-H ) :   0.9523 B(  1-C ,  2-O ) :   2.0361 B(  1-C ,  3-F ) :   1.1593

Dispersion correction           -0.000908897
FINAL SINGLE POINT ENERGY      -253.119994546148

DIPOLE MOMENT
-------------
                                X             Y             Z
Electronic contribution:      3.64605      -2.77444       2.10510
Nuclear contribution   :     -3.58210       3.29544      -3.18468
                        -----------------------------------------
Total Dipole Moment    :      0.06395       0.52099      -1.07958
                        -----------------------------------------
Magnitude (a.u.)       :      1.20042
Magnitude (Debye)      :      3.05123

Rotational constants in cm-1:     0.368075     0.322590     0.177495
Rotational constants in MHz : 11034.605942  9670.991558  5321.154504

                             ****ORCA TERMINATED NORMALLY****
TOTAL RUN TIME: 0 days 0 hours 0 minutes 8 seconds 800 msec
