                         Program Version 5.0.0 -  RELEASE  -
|  1> !wB97X-D3 RIJCOSX def2-TZVP def2/J TightSCF
|  2> *xyz 0 1
|  3> C          3.91385       -1.65829        3.01513
|  4> N          5.03927       -0.90115        2.49282
|  5> C          6.21038       -1.41726        2.17824
|  6> C          6.53591       -2.67712        2.55608
|  7> N          7.07675       -0.70082        1.47891
|  8> H          7.95464       -1.12155        1.20755
|  9> H          6.75616        0.10664        0.96028
| 10> H          4.84217        0.01761        2.11519
| 11> H          5.99388       -3.12692        3.28278
| 12> H          7.49844       -2.97548        2.46878
| 13> H          3.08844       -0.99893        3.18495
| 14> H          4.19412       -2.12366        3.93697
| 15> H          3.63051       -2.40965        2.30798
| 16> *
| 17> %MaxCore 64000
| 18> %pal nprocs 8
| 19> end
| 20> %scf
| 21>   MaxIter 150
| 22> end
| 23>
| 24>
| 25>                          ****END OF INPUT****

CARTESIAN COORDINATES (ANGSTROEM)
---------------------------------
  C      3.913850   -1.658290    3.015130
  N      5.039270   -0.901150    2.492820
  C      6.210380   -1.417260    2.178240
  C      6.535910   -2.677120    2.556080
  N      7.076750   -0.700820    1.478910
  H      7.954640   -1.121550    1.207550
  H      6.756160    0.106640    0.960280
  H      4.842170    0.017610    2.115190
  H      5.993880   -3.126920    3.282780
  H      7.498440   -2.975480    2.468780
  H      3.088440   -0.998930    3.184950
  H      4.194120   -2.123660    3.936970
  H      3.630510   -2.409650    2.307980

 Total Charge           Charge          ....    0
 Multiplicity           Mult            ....    1
 Number of Electrons    NEL             ....   40
 Basis Dimension        Dim             ....  203

ORBITAL ENERGIES
----------------

  NO   OCC          E(Eh)            E(eV)
   0   2.0000     -14.427143      -392.5825
   1   2.0000     -14.420849      -392.4112
   2   2.0000     -10.323539      -280.9178
   3   2.0000     -10.296807      -280.1904
   4   2.0000     -10.182024      -277.0670
   5   2.0000      -1.090323       -29.6692
   6   2.0000      -1.003135       -27.2967
   7   2.0000      -0.832586       -22.6558
   8   2.0000      -0.807804       -21.9815
   9   2.0000      -0.676592       -18.4110
  10   2.0000      -0.652453       -17.7541
  11   2.0000      -0.622696       -16.9444
  12   2.0000      -0.553065       -15.0497
  13   2.0000      -0.543611       -14.7924
  14   2.0000      -0.512770       -13.9532
  15   2.0000      -0.481175       -13.0934
  16   2.0000      -0.468452       -12.7472
  17   2.0000      -0.459452       -12.5023
  18   2.0000      -0.344650        -9.3784
  19   2.0000      -0.251205        -6.8356
  20   0.0000       0.103273         2.8102
  21   0.0000       0.137180         3.7328
  22   0.0000       0.150023         4.0823
  23   0.0000       0.162733         4.4282
  24   0.0000       0.173396         4.7183

MULLIKEN ATOMIC CHARGES
-----------------------
   0 C :   -0.232492
   1 N :   -0.350126
   2 C :    0.374254
   3 C :   -0.519534
   4 N :   -0.512399
   5 H :    0.260465
   6 H :    0.225509
   7 H :    0.202830
   8 H :    0.085768
   9 H :    0.081714
  10 H :    0.120793
  11 H :    0.127821
  12 H :    0.135396
Sum of atomic charges:   -0.0000000

LOEWDIN ATOMIC CHARGES
----------------------
   0 C :   -0.291957
   1 N :    0.088921
   2 C :   -0.465281
   3 C :   -0.362962
   4 N :   -0.014002
   5 H :    0.180813
   6 H :    0.162070
   7 H :    0.178362
   8 H :    0.094996
   9 H :    0.092584
  10 H :    0.111730
  11 H :    0.113473
  12 H :    0.111255

  Mayer bond orders larger than 0.100000
B(  0-C ,  1-N ) :   0.9435 B(  0-C , 10-H ) :   0.9700 B(  0-C , 11-H ) :   0.9741
B(  0-C , 12-H ) :   0.9797 B(  1-N ,  2-C ) :   1.1986 B(  1-N ,  7-H ) :   0.9328
B(  2-C ,  3-C ) :   1.6285 B(  2-C ,  4-N ) :   1.1435 B(  3-C ,  8-H ) :   1.0101
B(  3-C ,  9-H ) :   1.0050 B(  4-N ,  5-H ) :   0.9194 B(  4-N ,  6-H ) :   0.9234

Dispersion correction           -0.002368308
FINAL SINGLE POINT ENERGY      -228.617009608037

DIPOLE MOMENT
-------------
                                X             Y             Z
Electronic contribution:      1.47465       2.08811      -1.19435
Nuclear contribution   :     -1.85843      -0.99162       0.73717
                        -----------------------------------------
Total Dipole Moment    :     -0.38378       1.09649      -0.45718
                        -----------------------------------------
Magnitude (a.u.)       :      1.24843
Magnitude (Debye)      :      3.17326

Rotational constants in cm-1:     0.336495     0.135025     0.098658
Rotational constants in MHz : 10087.870488  4047.943278  2957.678786

                             ****ORCA TERMINATED NORMALLY****
TOTAL RUN TIME: 0 days 0 hours 0 minutes 18 seconds 602 msec
