                         Program Version 5.0.0 -  RELEASE  -
|  1> !wB97X-D3 RIJCOSX def2-TZVP def2/J TightSCF
|  2> *xyz 0 1
|  3> C          3.91385       -1.65829        3.01513
|  4> N          5.03927       -0.90115        2.49282
|  5> C          6.21038       -1.41726        2.17824
|  6> N          6.53591       -2.67712        2.55608
|  7> C          7.07675       -0.70082        1.47891
|  8> H          7.95464       -1.12155        1.20755
|  9> H          6.75616        0.10664        0.96028
| 10> H          4.84217        0.01761        2.11519
| 11> H          5.99388       -3.12692        3.28278
| 12> H          7.49844       -2.97548        2.46878
| 13> H          3.08844       -0.99893        3.18495
| 14> H          4.19412       -2.12366        3.93697
| 15> H          3.63051       -2.40965        2.30798
| 16> *
| 17> %MaxCore 64000
| 18> %pal nprocs 8
| 19> end
| 20> %scf
| 21>   MaxIter 150
| 22> end
| 23>
| 24>
| 25>                          ****END OF INPUT****

CARTESIAN COORDINATES (ANGSTROEM)
---------------------------------
  C      3.913850   -1.658290    3.015130
  N      5.039270   -0.901150    2.492820
  C      6.210380   -1.417260    2.178240
  N      6.535910   -2.677120    2.556080
  C      7.076750   -0.700820    1.478910
  H      7.954640   -1.121550    1.207550
  H      6.756160    0.106640    0.960280
  H      4.842170    0.017610    2.115190
  H      5.993880   -3.126920    3.282780
  H      7.498440   -2.975480    2.468780
  H      3.088440   -0.998930    3.184950
  H      4.194120   -2.123660    3.936970
  H      3.630510   -2.409650    2.307980

 Total Charge           Charge          ....    0
 Multiplicity           Mult            ....    1
 Number of Electrons    NEL             ....   40
 Basis Dimension        Dim             ....  203

ORBITAL ENERGIES
----------------

  NO   OCC          E(Eh)            E(eV)
   0   2.0000     -14.422587      -392.4585
   1   2.0000     -14.419722      -392.3806
   2   2.0000     -10.321028      -280.8494
   3   2.0000     -10.305147      -280.4173
   4   2.0000     -10.179333      -276.9937
   5   2.0000      -1.085064       -29.5261
   6   2.0000      -0.996205       -27.1081
   7   2.0000      -0.859503       -23.3883
   8   2.0000      -0.780154       -21.2291
   9   2.0000      -0.706110       -19.2142
  10   2.0000      -0.635322       -17.2880
  11   2.0000      -0.593275       -16.1438
  12   2.0000      -0.572882       -15.5889
  13   2.0000      -0.559162       -15.2156
  14   2.0000      -0.503710       -13.7067
  15   2.0000      -0.486929       -13.2500
  16   2.0000      -0.477225       -12.9860
  17   2.0000      -0.456857       -12.4317
  18   2.0000      -0.350537        -9.5386
  19   2.0000      -0.248584        -6.7643
  20   0.0000       0.105526         2.8715
  21   0.0000       0.136160         3.7051
  22   0.0000       0.148543         4.0421
  23   0.0000       0.155534         4.2323
  24   0.0000       0.186755         5.0819

MULLIKEN ATOMIC CHARGES
-----------------------
   0 C :   -0.257679
   1 N :   -0.347288
   2 C :    0.398532
   3 N :   -0.517617
   4 C :   -0.535179
   5 H :    0.082339
   6 H :    0.087882
   7 H :    0.232973
   8 H :    0.227708
   9 H :    0.254120
  10 H :    0.128043
  11 H :    0.109956
  12 H :    0.136209
Sum of atomic charges:    0.0000000

LOEWDIN ATOMIC CHARGES
----------------------
   0 C :   -0.307984
   1 N :    0.089072
   2 C :   -0.455724
   3 N :   -0.028078
   4 C :   -0.349166
   5 H :    0.095373
   6 H :    0.095658
   7 H :    0.195012
   8 H :    0.160383
   9 H :    0.177237
  10 H :    0.115572
  11 H :    0.105010
  12 H :    0.107632

  Mayer bond orders larger than 0.100000
B(  0-C ,  1-N ) :   0.9476 B(  0-C , 10-H ) :   0.9752 B(  0-C , 11-H ) :   0.9771
B(  0-C , 12-H ) :   0.9749 B(  1-N ,  2-C ) :   1.2047 B(  1-N ,  7-H ) :   0.9260
B(  2-C ,  3-N ) :   1.1338 B(  2-C ,  4-C ) :   1.6223 B(  3-N ,  8-H ) :   0.9222
B(  3-N ,  9-H ) :   0.9219 B(  4-C ,  5-H ) :   1.0188 B(  4-C ,  6-H ) :   1.0104

Dispersion correction           -0.002384317
FINAL SINGLE POINT ENERGY      -228.615884564706

DIPOLE MOMENT
-------------
                                X             Y             Z
Electronic contribution:      0.92886       0.08200       0.04168
Nuclear contribution   :     -1.74889      -0.59133       0.51900
                        -----------------------------------------
Total Dipole Moment    :     -0.82003      -0.50933       0.56068
                        -----------------------------------------
Magnitude (a.u.)       :      1.11634
Magnitude (Debye)      :      2.83751

Rotational constants in cm-1:     0.319878     0.140238     0.099847
Rotational constants in MHz :  9589.703832  4204.215525  2993.343846

                             ****ORCA TERMINATED NORMALLY****
TOTAL RUN TIME: 0 days 0 hours 0 minutes 18 seconds 377 msec
