                         Program Version 5.0.0 -  RELEASE  -
|  1> !wB97X-D3 RIJCOSX def2-TZVP def2/J TightSCF xyzfile
|  2>
|  3> *xyzfile 0 1 D6.xyz
|  4>
|  5> %MaxCore 64000
|  6>
|  7> %pal nprocs 18
|  8> end
|  9>
| 10> %scf
| 11>   MaxIter 150
| 12> end
| 13>
| 14>
| 15>                          ****END OF INPUT****

CARTESIAN COORDINATES (ANGSTROEM)
---------------------------------
  C      3.913853   -1.658291    3.015134
  N      5.039266   -0.901154    2.492821
  C      4.084215    1.742081   -2.114724
  C      4.265245    2.500518   -0.795890
  H      4.868534    3.392674   -0.981134
  H      3.307640    2.824571   -0.387809
  C      4.982240    1.650257    0.247422
  C      6.210384   -1.417261    2.178244
  N      6.535913   -2.677122    2.556078
  C      7.076754   -0.700820    1.478906
  H      7.954643   -1.121554    1.207554
  H      6.756161    0.106637    0.960278
  H      4.842168    0.017609    2.115191
  H      5.993876   -3.126918    3.282784
  H      7.498441   -2.975482    2.468776
  O      4.368065    1.389270    1.313706
  F      6.128919    1.233512   -0.045620
  C      3.139159   -2.376572    1.910609
  H      3.267235   -0.939401    3.520693
  H      4.247195   -2.355095    3.790065
  C      1.997274    0.430918   -1.399218
  C      3.412746    0.376886   -1.965497
  H      4.047407   -0.246590   -1.326706
  H      3.390774   -0.118719   -2.942839
  H      5.068475    1.598504   -2.565728
  H      3.503356    2.363939   -2.804565
  C      2.399946   -1.389579    1.009490
  H      2.440750   -3.087118    2.362976
  H      3.844475   -2.970462    1.318677
  C      2.070177   -1.936705   -0.372401
  H      1.481611   -1.061542    1.509912
  H      3.008628   -0.490001    0.897451
  C      1.322238   -0.935775   -1.256413
  H      1.472747   -2.850902   -0.283997
  H      3.003539   -2.234041   -0.862535
  H      1.376444    1.058920   -2.047420
  H      2.015341    0.929780   -0.426535
  H      0.316648   -0.787213   -0.848278
  H      1.185611   -1.379252   -2.248613

 Total Charge           Charge          ....    0
 Multiplicity           Mult            ....    1
 Number of Electrons    NEL             ....  126
 Basis Dimension        Dim             ....  634

ORBITAL ENERGIES
----------------

  NO   OCC          E(Eh)            E(eV)
   0   2.0000     -24.868403      -676.7036
   1   2.0000     -19.257413      -524.0208
   2   2.0000     -14.401620      -391.8880
   3   2.0000     -14.384072      -391.4105
   4   2.0000     -10.476023      -285.0671
   5   2.0000     -10.313553      -280.6460
   6   2.0000     -10.300068      -280.2791
   7   2.0000     -10.297613      -280.2123
   8   2.0000     -10.293947      -280.1125
   9   2.0000     -10.281545      -279.7751
  10   2.0000     -10.273534      -279.5571
  11   2.0000     -10.269597      -279.4499
  12   2.0000     -10.263987      -279.2973
  13   2.0000     -10.258824      -279.1568
  14   2.0000     -10.258475      -279.1473
  15   2.0000     -10.154282      -276.3121
  16   2.0000      -1.453793       -39.5597
  17   2.0000      -1.174997       -31.9733
  18   2.0000      -1.061969       -28.8976
  19   2.0000      -0.977155       -26.5897
  20   2.0000      -0.954546       -25.9745
  21   2.0000      -0.922992       -25.1159
  22   2.0000      -0.891305       -24.2536
  23   2.0000      -0.854083       -23.2408
  24   2.0000      -0.827485       -22.5170
  25   2.0000      -0.790728       -21.5168
  26   2.0000      -0.783600       -21.3228
  27   2.0000      -0.750699       -20.4276
  28   2.0000      -0.720623       -19.6092
  29   2.0000      -0.703290       -19.1375
  30   2.0000      -0.680834       -18.5264
  31   2.0000      -0.674882       -18.3645
  32   2.0000      -0.668820       -18.1995
  33   2.0000      -0.658668       -17.9233
  34   2.0000      -0.627336       -17.0707
  35   2.0000      -0.611113       -16.6292
  36   2.0000      -0.589804       -16.0494
  37   2.0000      -0.586462       -15.9584
  38   2.0000      -0.575469       -15.6593
  39   2.0000      -0.563003       -15.3201
  40   2.0000      -0.554957       -15.1012
  41   2.0000      -0.534718       -14.5504
  42   2.0000      -0.530904       -14.4466
  43   2.0000      -0.522366       -14.2143
  44   2.0000      -0.515151       -14.0180
  45   2.0000      -0.508430       -13.8351
  46   2.0000      -0.491390       -13.3714
  47   2.0000      -0.481831       -13.1113
  48   2.0000      -0.477412       -12.9910
  49   2.0000      -0.471512       -12.8305
  50   2.0000      -0.464045       -12.6273
  51   2.0000      -0.449522       -12.2321
  52   2.0000      -0.447181       -12.1684
  53   2.0000      -0.436794       -11.8858
  54   2.0000      -0.433780       -11.8037
  55   2.0000      -0.429307       -11.6820
  56   2.0000      -0.417677       -11.3656
  57   2.0000      -0.405392       -11.0313
  58   2.0000      -0.403969       -10.9925
  59   2.0000      -0.399382       -10.8677
  60   2.0000      -0.392264       -10.6741
  61   2.0000      -0.325643        -8.8612
  62   2.0000      -0.228700        -6.2232
  63   0.0000       0.038515         1.0480
  64   0.0000       0.105099         2.8599
  65   0.0000       0.119736         3.2582
  66   0.0000       0.124160         3.3786
  67   0.0000       0.126395         3.4394

MULLIKEN ATOMIC CHARGES
-----------------------
   0 C :   -0.178634
   1 N :   -0.329408
   2 C :   -0.202346
   3 C :   -0.224646
   4 H :    0.144914
   5 H :    0.158120
   6 C :    0.431401
   7 C :    0.367505
   8 N :   -0.514828
   9 C :   -0.537974
  10 H :    0.071485
  11 H :    0.065309
  12 H :    0.254941
  13 H :    0.221033
  14 H :    0.244828
  15 O :   -0.406786
  16 F :   -0.088691
  17 C :   -0.095332
  18 H :    0.120313
  19 H :    0.104357
  20 C :   -0.251642
  21 C :   -0.259087
  22 H :    0.138865
  23 H :    0.115307
  24 H :    0.130357
  25 H :    0.118715
  26 C :   -0.254392
  27 H :    0.092021
  28 H :    0.110269
  29 C :   -0.215213
  30 H :    0.097011
  31 H :    0.063748
  32 C :   -0.168303
  33 H :    0.106305
  34 H :    0.118840
  35 H :    0.106975
  36 H :    0.134923
  37 H :    0.105098
  38 H :    0.104642
Sum of atomic charges:   -0.0000000

LOEWDIN ATOMIC CHARGES
----------------------
   0 C :   -0.291569
   1 N :    0.121775
   2 C :   -0.260823
   3 C :   -0.223840
   4 H :    0.153784
   5 H :    0.154077
   6 C :   -0.464798
   7 C :   -0.459497
   8 N :   -0.032231
   9 C :   -0.369102
  10 H :    0.090764
  11 H :    0.084925
  12 H :    0.167403
  13 H :    0.156785
  14 H :    0.173215
  15 O :    0.070615
  16 F :    0.358035
  17 C :   -0.268746
  18 H :    0.135638
  19 H :    0.121931
  20 C :   -0.269669
  21 C :   -0.265294
  22 H :    0.141273
  23 H :    0.140898
  24 H :    0.142328
  25 H :    0.142319
  26 C :   -0.270680
  27 H :    0.131066
  28 H :    0.140372
  29 C :   -0.271671
  30 H :    0.135357
  31 H :    0.135916
  32 C :   -0.266732
  33 H :    0.135668
  34 H :    0.135614
  35 H :    0.136013
  36 H :    0.137087
  37 H :    0.136645
  38 H :    0.135151

  Mayer bond orders larger than 0.100000
B(  0-C ,  1-N ) :   0.9718 B(  0-C , 17-C ) :   0.9138 B(  0-C , 18-H ) :   0.9837
B(  0-C , 19-H ) :   1.0019 B(  1-N ,  7-C ) :   1.2421 B(  1-N , 12-H ) :   0.8638
B(  2-C ,  3-C ) :   0.9432 B(  2-C , 21-C ) :   0.9674 B(  2-C , 24-H ) :   0.9786
B(  2-C , 25-H ) :   0.9715 B(  3-C ,  4-H ) :   0.9525 B(  3-C ,  5-H ) :   0.9826
B(  3-C ,  6-C ) :   0.9730 B(  6-C , 15-O ) :   1.8878 B(  6-C , 16-F ) :   1.1385
B(  7-C ,  8-N ) :   1.1205 B(  7-C ,  9-C ) :   1.6157 B(  8-N , 13-H ) :   0.9192
B(  8-N , 14-H ) :   0.9242 B(  9-C , 10-H ) :   1.0131 B(  9-C , 11-H ) :   1.0330
B( 12-H , 15-O ) :   0.1033 B( 17-C , 26-C ) :   0.9742 B( 17-C , 27-H ) :   0.9670
B( 17-C , 28-H ) :   0.9760 B( 20-C , 21-C ) :   0.9334 B( 20-C , 32-C ) :   0.9695
B( 20-C , 35-H ) :   0.9702 B( 20-C , 36-H ) :   0.9798 B( 21-C , 22-H ) :   0.9751
B( 21-C , 23-H ) :   0.9708 B( 26-C , 29-C ) :   0.9555 B( 26-C , 30-H ) :   0.9672
B( 26-C , 31-H ) :   0.9938 B( 29-C , 32-C ) :   0.9719 B( 29-C , 33-H ) :   0.9788
B( 29-C , 34-H ) :   0.9853 B( 32-C , 37-H ) :   0.9837 B( 32-C , 38-H ) :   0.9833

Dispersion correction           -0.020134997
FINAL SINGLE POINT ENERGY      -755.746576153990

DIPOLE MOMENT
-------------
                                X             Y             Z
Electronic contribution:     12.40267       8.51291       4.39762
Nuclear contribution   :    -13.25777      -8.13937      -5.31678
                        -----------------------------------------
Total Dipole Moment    :     -0.85509       0.37354      -0.91915
                        -----------------------------------------
Magnitude (a.u.)       :      1.30979
Magnitude (Debye)      :      3.32923

Rotational constants in cm-1:     0.020021     0.013636     0.009443
Rotational constants in MHz :   600.208195   408.782966   283.102361

                             ****ORCA TERMINATED NORMALLY****
TOTAL RUN TIME: 0 days 0 hours 2 minutes 6 seconds 626 msec
