                         Program Version 5.0.0 -  RELEASE  -
|  1> !wB97X-D3 RIJCOSX def2-SVPD def2/J TightSCF CPCM(Water)
|  2> *xyz -1 1
|  3> C         -0.05517        1.61942       -3.78858
|  4> C          1.22302        2.46987       -3.75691
|  5> H          1.11470        3.25807       -4.53300
|  6> H          1.23773        3.01124       -2.79216
|  7> O          2.35381        1.71203       -3.93448
|  8> H         -0.10198        1.08015       -4.71156
|  9> H         -0.91014        2.25726       -3.70441
| 10> H         -0.04403        0.92826       -2.97183
| 11> *
| 12>
| 13> %MaxCore 64000
| 14>
| 15> %pal nprocs 18
| 16> end
| 17>
| 18> %scf
| 19>   MaxIter 150
| 20> end
| 21>
| 22>
| 23>                          ****END OF INPUT****

CARTESIAN COORDINATES (ANGSTROEM)
---------------------------------
  C     -0.055170    1.619420   -3.788580
  C      1.223020    2.469870   -3.756910
  H      1.114700    3.258070   -4.533000
  H      1.237730    3.011240   -2.792160
  O      2.353810    1.712030   -3.934480
  H     -0.101980    1.080150   -4.711560
  H     -0.910140    2.257260   -3.704410
  H     -0.044030    0.928260   -2.971830

 Total Charge           Charge          ....   -1
 Multiplicity           Mult            ....    1
 Number of Electrons    NEL             ....   26
 Basis Dimension        Dim             ....  103

ORBITAL ENERGIES
----------------

  NO   OCC          E(Eh)            E(eV)
   0   2.0000     -19.119642      -520.2719
   1   2.0000     -10.286477      -279.9093
   2   2.0000     -10.244788      -278.7749
   3   2.0000      -0.987787       -26.8791
   4   2.0000      -0.805698       -21.9242
   5   2.0000      -0.656530       -17.8651
   6   2.0000      -0.528229       -14.3738
   7   2.0000      -0.498739       -13.5714
   8   2.0000      -0.448833       -12.2134
   9   2.0000      -0.429975       -11.7002
  10   2.0000      -0.411520       -11.1980
  11   2.0000      -0.271192        -7.3795
  12   2.0000      -0.270748        -7.3674
  13   0.0000       0.106854         2.9076
  14   0.0000       0.134713         3.6657
  15   0.0000       0.151260         4.1160
  16   0.0000       0.155439         4.2297
  17   0.0000       0.189522         5.1572

MULLIKEN ATOMIC CHARGES
-----------------------
   0 C :    0.368490
   1 C :    0.118697
   2 H :   -0.140838
   3 H :   -0.154603
   4 O :   -0.969824
   5 H :   -0.095669
   6 H :   -0.036683
   7 H :   -0.089571
Sum of atomic charges:   -1.0000000

LOEWDIN ATOMIC CHARGES
----------------------
   0 C :    0.077483
   1 C :   -0.267775
   2 H :   -0.013724
   3 H :   -0.015899
   4 O :   -0.685044
   5 H :   -0.032189
   6 H :   -0.031470
   7 H :   -0.031381

  Mayer bond orders larger than 0.100000
B(  0-C ,  1-C ) :   1.2185 B(  0-C ,  5-H ) :   0.8830 B(  0-C ,  6-H ) :   0.8763
B(  0-C ,  7-H ) :   0.8843 B(  1-C ,  2-H ) :   0.9602 B(  1-C ,  3-H ) :   0.9654
B(  1-C ,  4-O ) :   1.2775 B(  1-C ,  5-H ) :   0.1580 B(  1-C ,  6-H ) :   0.1086
B(  1-C ,  7-H ) :   0.1520

Dispersion correction           -0.000857260
FINAL SINGLE POINT ENERGY      -154.390475928042

DIPOLE MOMENT
-------------
                                X             Y             Z
Electronic contribution:      1.93948      -0.24042      -0.15792
Nuclear contribution   :     -4.28298       0.81046       0.39340
                        -----------------------------------------
Total Dipole Moment    :     -2.34349       0.57005       0.23548
                        -----------------------------------------
Magnitude (a.u.)       :      2.42330
Magnitude (Debye)      :      6.15953

Rotational constants in cm-1:     1.266793     0.328147     0.288309
Rotational constants in MHz : 37977.512300  9837.594308  8643.275638

                             ****ORCA TERMINATED NORMALLY****
TOTAL RUN TIME: 0 days 0 hours 0 minutes 5 seconds 380 msec
