                         Program Version 5.0.0 -  RELEASE  -
|  1> !wB97X-D3 RIJCOSX def2-SVPD def2/J TightSCF CPCM(Water)
|  2> *xyz 1 1
|  3> C          1.63556       -1.67040       -5.29211
|  4> C          0.33848       -1.50091       -4.50540
|  5> N          2.48451       -0.50741       -5.14039
|  6> H          1.39834       -1.82924       -6.35259
|  7> H          2.15586       -2.56540       -4.93209
|  8> C          3.45115       -0.14953       -5.95259
|  9> N          3.92267        1.08956       -5.85071
| 10> N          3.96616       -1.00618       -6.86788
| 11> H          3.52139       -1.90647       -6.99527
| 12> H          4.44482       -0.62347       -7.67035
| 13> H          2.25200        0.24080       -4.49879
| 14> H          3.46428        1.64078       -5.13639
| 15> H          4.83447        1.31375       -6.22465
| 16> H         -0.17658       -0.62881       -4.85045
| 17> H          0.56384       -1.39374       -3.46490
| 18> H         -0.28102       -2.36136       -4.64938
| 19> *
| 20>
| 21> %MaxCore 64000
| 22>
| 23> %pal nprocs 18
| 24> end
| 25>
| 26> %scf
| 27>   MaxIter 150
| 28> end
| 29>
| 30>
| 31>                          ****END OF INPUT****

CARTESIAN COORDINATES (ANGSTROEM)
---------------------------------
  C      1.635560   -1.670400   -5.292110
  C      0.338480   -1.500910   -4.505400
  N      2.484510   -0.507410   -5.140390
  H      1.398340   -1.829240   -6.352590
  H      2.155860   -2.565400   -4.932090
  C      3.451150   -0.149530   -5.952590
  N      3.922670    1.089560   -5.850710
  N      3.966160   -1.006180   -6.867880
  H      3.521390   -1.906470   -6.995270
  H      4.444820   -0.623470   -7.670350
  H      2.252000    0.240800   -4.498790
  H      3.464280    1.640780   -5.136390
  H      4.834470    1.313750   -6.224650
  H     -0.176580   -0.628810   -4.850450
  H      0.563840   -1.393740   -3.464900
  H     -0.281020   -2.361360   -4.649380

 Total Charge           Charge          ....    1
 Multiplicity           Mult            ....    1
 Number of Electrons    NEL             ....   48
 Basis Dimension        Dim             ....  200

ORBITAL ENERGIES
----------------

  NO   OCC          E(Eh)            E(eV)
   0   2.0000     -14.494005      -394.4019
   1   2.0000     -14.484646      -394.1473
   2   2.0000     -14.484098      -394.1323
   3   2.0000     -10.454594      -284.4840
   4   2.0000     -10.342184      -281.4251
   5   2.0000     -10.284632      -279.8591
   6   2.0000      -1.158296       -31.5188
   7   2.0000      -1.044080       -28.4109
   8   2.0000      -1.025926       -27.9169
   9   2.0000      -0.889193       -24.1962
  10   2.0000      -0.773481       -21.0475
  11   2.0000      -0.753904       -20.5148
  12   2.0000      -0.708306       -19.2740
  13   2.0000      -0.678876       -18.4732
  14   2.0000      -0.615812       -16.7571
  15   2.0000      -0.612129       -16.6569
  16   2.0000      -0.599550       -16.3146
  17   2.0000      -0.578919       -15.7532
  18   2.0000      -0.542912       -14.7734
  19   2.0000      -0.497702       -13.5432
  20   2.0000      -0.476350       -12.9621
  21   2.0000      -0.466153       -12.6847
  22   2.0000      -0.401157       -10.9160
  23   2.0000      -0.378668       -10.3041
  24   0.0000       0.080015         2.1773
  25   0.0000       0.086381         2.3506
  26   0.0000       0.109733         2.9860
  27   0.0000       0.116190         3.1617
  28   0.0000       0.147464         4.0127

MULLIKEN ATOMIC CHARGES
-----------------------
   0 C :   -0.004524
   1 C :    0.654704
   2 N :   -0.518239
   3 H :   -0.031374
   4 H :   -0.052453
   5 C :    1.165833
   6 N :   -0.091351
   7 N :   -0.152898
   8 H :    0.030847
   9 H :   -0.012020
  10 H :   -0.044016
  11 H :    0.105780
  12 H :   -0.033217
  13 H :   -0.002062
  14 H :    0.010138
  15 H :   -0.025147
Sum of atomic charges:    1.0000000

LOEWDIN ATOMIC CHARGES
----------------------
   0 C :    0.026022
   1 C :    0.142523
   2 N :    0.037290
   3 H :    0.041318
   4 H :    0.041001
   5 C :   -0.031136
   6 N :    0.262865
   7 N :    0.275448
   8 H :    0.019149
   9 H :    0.042044
  10 H :    0.066096
  11 H :    0.041817
  12 H :    0.050367
  13 H :   -0.005495
  14 H :   -0.005416
  15 H :   -0.003893

  Mayer bond orders larger than 0.100000
B(  0-C ,  1-C ) :   1.2820 B(  0-C ,  2-N ) :   0.8694 B(  0-C ,  3-H ) :   0.9032
B(  0-C ,  4-H ) :   0.9312 B(  0-C , 10-H ) :  -0.1071 B(  0-C , 13-H ) :   0.1958
B(  0-C , 14-H ) :   0.2163 B(  0-C , 15-H ) :   0.2664 B(  1-C , 13-H ) :   0.8148
B(  1-C , 14-H ) :   0.7587 B(  1-C , 15-H ) :   0.7623 B(  2-N ,  3-H ) :   0.1572
B(  2-N ,  4-H ) :   0.1587 B(  2-N ,  5-C ) :   1.0890 B(  2-N ,  6-N ) :   0.2660
B(  2-N ,  7-N ) :   0.1851 B(  2-N , 10-H ) :   1.1965 B(  5-C ,  6-N ) :   0.9935
B(  5-C ,  7-N ) :   0.9314 B(  5-C ,  9-H ) :  -0.1006 B(  5-C , 10-H ) :  -0.1936
B(  6-N ,  7-N ) :   0.1417 B(  6-N , 11-H ) :   1.0185 B(  6-N , 12-H ) :   1.2017
B(  7-N ,  8-H ) :   1.0161 B(  7-N ,  9-H ) :   1.1970 B(  8-H ,  9-H ) :  -0.1426
B( 11-H , 12-H ) :  -0.1318

Dispersion correction           -0.003480723
FINAL SINGLE POINT ENERGY      -284.232015996910

DIPOLE MOMENT
-------------
                                X             Y             Z
Electronic contribution:      4.93207       2.69456      -1.81556
Nuclear contribution   :     -3.96322      -1.85512       1.24891
                        -----------------------------------------
Total Dipole Moment    :      0.96885       0.83945      -0.56666
                        -----------------------------------------
Magnitude (a.u.)       :      1.40159
Magnitude (Debye)      :      3.56256

Rotational constants in cm-1:     0.261404     0.067000     0.054949
Rotational constants in MHz :  7836.702504  2008.609425  1647.329138

                             ****ORCA TERMINATED NORMALLY****
TOTAL RUN TIME: 0 days 0 hours 0 minutes 13 seconds 19 msec
