                         Program Version 5.0.0 -  RELEASE  -
|  1> !wB97X-D3 RIJCOSX def2-SVPD def2/J TightSCF CPCM(Water) xyzfile
|  2>
|  3> *xyzfile 0 1 B.xyz
|  4>
|  5> %MaxCore 64000
|  6>
|  7> %pal nprocs 18
|  8> end
|  9>
| 10> %scf
| 11>   MaxIter 150
| 12> end
| 13>
| 14>
| 15>                          ****END OF INPUT****

CARTESIAN COORDINATES (ANGSTROEM)
---------------------------------
  C      1.635557   -1.670396   -5.292109
  C      0.338484   -1.500907   -4.505398
  N      2.484511   -0.507410   -5.140392
  C     -0.684873   -0.528026   -5.099889
  C     -0.290406    0.951335   -5.153423
  H      0.607991    1.070692   -5.764412
  C     -0.055168    1.619420   -3.788577
  H     -1.080912    1.483775   -5.689436
  H      0.045006    0.862302   -3.003015
  H     -0.922936    2.230329   -3.517028
  C      1.223022    2.469865   -3.756911
  H      1.114701    3.258074   -4.532999
  H      1.237732    3.011242   -2.792157
  O      2.353815    1.712032   -3.934477
  H      1.398337   -1.829239   -6.352591
  H      2.155864   -2.565398   -4.932091
  C      3.451149   -0.149530   -5.952589
  N      3.922667    1.089559   -5.850711
  N      3.966162   -1.006183   -6.867880
  H      3.521391   -1.906467   -6.995270
  H      4.444824   -0.623472   -7.670348
  H      2.251995    0.240804   -4.498792
  H      3.464277    1.640782   -5.136392
  H      4.834470    1.313745   -6.224653
  H     -0.937999   -0.869056   -6.110838
  H     -1.604638   -0.622496   -4.513132
  H      0.594887   -1.211578   -3.482312
  H     -0.126530   -2.487656   -4.434176

 Total Charge           Charge          ....    0
 Multiplicity           Mult            ....    1
 Number of Electrons    NEL             ....   88
 Basis Dimension        Dim             ....  359

ORBITAL ENERGIES
----------------

  NO   OCC          E(Eh)            E(eV)
   0   2.0000     -19.143145      -520.9115
   1   2.0000     -14.467048      -393.6684
   2   2.0000     -14.444706      -393.0604
   3   2.0000     -14.441080      -392.9618
   4   2.0000     -10.425197      -283.6840
   5   2.0000     -10.324702      -280.9494
   6   2.0000     -10.297540      -280.2103
   7   2.0000     -10.285300      -279.8772
   8   2.0000     -10.278600      -279.6949
   9   2.0000     -10.270395      -279.4716
  10   2.0000     -10.261717      -279.2355
  11   2.0000      -1.128889       -30.7186
  12   2.0000      -1.028121       -27.9766
  13   2.0000      -1.012823       -27.5603
  14   2.0000      -0.996986       -27.1294
  15   2.0000      -0.908078       -24.7101
  16   2.0000      -0.858105       -23.3502
  17   2.0000      -0.803202       -21.8563
  18   2.0000      -0.752571       -20.4785
  19   2.0000      -0.724823       -19.7234
  20   2.0000      -0.692980       -18.8569
  21   2.0000      -0.679096       -18.4791
  22   2.0000      -0.657255       -17.8848
  23   2.0000      -0.642382       -17.4801
  24   2.0000      -0.591269       -16.0892
  25   2.0000      -0.589192       -16.0327
  26   2.0000      -0.584043       -15.8926
  27   2.0000      -0.573495       -15.6056
  28   2.0000      -0.542201       -14.7540
  29   2.0000      -0.530252       -14.4289
  30   2.0000      -0.520231       -14.1562
  31   2.0000      -0.511570       -13.9205
  32   2.0000      -0.487380       -13.2623
  33   2.0000      -0.470148       -12.7934
  34   2.0000      -0.458262       -12.4699
  35   2.0000      -0.442995       -12.0545
  36   2.0000      -0.424369       -11.5477
  37   2.0000      -0.410792       -11.1782
  38   2.0000      -0.405856       -11.0439
  39   2.0000      -0.398228       -10.8363
  40   2.0000      -0.378625       -10.3029
  41   2.0000      -0.346465        -9.4278
  42   2.0000      -0.301069        -8.1925
  43   2.0000      -0.297498        -8.0953
  44   0.0000       0.091890         2.5005
  45   0.0000       0.100605         2.7376
  46   0.0000       0.108097         2.9415
  47   0.0000       0.110428         3.0049
  48   0.0000       0.119265         3.2454

MULLIKEN ATOMIC CHARGES
-----------------------
   0 C :    0.637749
   1 C :    0.072449
   2 N :    0.051364
   3 C :    0.159213
   4 C :    0.112773
   5 H :    0.010879
   6 C :    0.013078
   7 H :   -0.228877
   8 H :   -0.037127
   9 H :   -0.191694
  10 C :    0.816292
  11 H :   -0.136001
  12 H :   -0.164663
  13 O :   -1.102981
  14 H :    0.039930
  15 H :   -0.165816
  16 C :    1.088718
  17 N :    0.217855
  18 N :   -0.088911
  19 H :    0.012990
  20 H :   -0.029292
  21 H :   -0.681290
  22 H :   -0.167106
  23 H :   -0.157865
  24 H :    0.107697
  25 H :   -0.094945
  26 H :    0.038535
  27 H :   -0.132954
Sum of atomic charges:    0.0000000

LOEWDIN ATOMIC CHARGES
----------------------
   0 C :    0.067568
   1 C :   -0.017483
   2 N :    0.050163
   3 C :   -0.029588
   4 C :   -0.028000
   5 H :    0.004479
   6 C :   -0.026224
   7 H :    0.017309
   8 H :    0.007578
   9 H :    0.016060
  10 C :   -0.086009
  11 H :    0.012369
  12 H :    0.000573
  13 O :   -0.482156
  14 H :    0.035342
  15 H :    0.032839
  16 C :   -0.037715
  17 N :    0.259598
  18 N :    0.257830
  19 H :    0.009599
  20 H :    0.031419
  21 H :   -0.111312
  22 H :   -0.113402
  23 H :    0.035010
  24 H :    0.023863
  25 H :    0.023755
  26 H :    0.018660
  27 H :    0.027876

  Mayer bond orders larger than 0.100000
B(  0-C ,  1-C ) :   1.2077 B(  0-C ,  2-N ) :   0.8771 B(  0-C , 14-H ) :   0.7676
B(  0-C , 15-H ) :   0.8983 B(  0-C , 21-H ) :  -0.1920 B(  0-C , 26-H ) :   0.1197
B(  0-C , 27-H ) :   0.1868 B(  1-C ,  2-N ) :   0.1024 B(  1-C ,  3-C ) :   1.2242
B(  1-C , 24-H ) :   0.1501 B(  1-C , 25-H ) :   0.1807 B(  1-C , 26-H ) :   0.7901
B(  1-C , 27-H ) :   0.8229 B(  2-N , 14-H ) :   0.2826 B(  2-N , 15-H ) :   0.1490
B(  2-N , 16-C ) :   1.2793 B(  2-N , 17-N ) :   0.1215 B(  2-N , 18-N ) :   0.1100
B(  2-N , 21-H ) :   1.0147 B(  3-C ,  4-C ) :   1.2749 B(  3-C ,  5-H ) :   0.1418
B(  3-C ,  7-H ) :   0.1181 B(  3-C , 24-H ) :   0.6858 B(  3-C , 25-H ) :   0.8552
B(  3-C , 26-H ) :   0.1475 B(  3-C , 27-H ) :   0.1361 B(  4-C ,  5-H ) :   0.8173
B(  4-C ,  6-C ) :   1.1975 B(  4-C ,  7-H ) :   0.8254 B(  4-C ,  8-H ) :   0.1238
B(  4-C ,  9-H ) :   0.1620 B(  4-C , 24-H ) :   0.2075 B(  4-C , 25-H ) :   0.1176
B(  5-H ,  6-C ) :   0.1081 B(  6-C ,  7-H ) :   0.1008 B(  6-C ,  8-H ) :   0.8555
B(  6-C ,  9-H ) :   0.9505 B(  6-C , 10-C ) :   1.0812 B(  6-C , 12-H ) :   0.1771
B( 10-C , 11-H ) :   0.8415 B( 10-C , 12-H ) :   0.8280 B( 10-C , 13-O ) :   1.0055
B( 11-H , 13-O ) :   0.2175 B( 13-O , 21-H ) :   0.3087 B( 13-O , 22-H ) :   0.3085
B( 16-C , 17-N ) :   0.9288 B( 16-C , 18-N ) :   0.9282 B( 16-C , 21-H ) :  -0.4142
B( 16-C , 22-H ) :  -0.1025 B( 16-C , 23-H ) :  -0.1367 B( 17-N , 18-N ) :   0.1166
B( 17-N , 22-H ) :   1.0121 B( 17-N , 23-H ) :   1.3241 B( 18-N , 19-H ) :   1.0245
B( 18-N , 20-H ) :   1.2074 B( 19-H , 20-H ) :  -0.1469 B( 22-H , 23-H ) :  -0.2019

Dispersion correction           -0.011927497
FINAL SINGLE POINT ENERGY      -516.013456317458

DIPOLE MOMENT
-------------
                                X             Y             Z
Electronic contribution:      8.39477      -1.57133      -3.04468
Nuclear contribution   :     -7.46499      -1.05836       0.01518
                        -----------------------------------------
Total Dipole Moment    :      0.92977      -2.62970      -3.02950
                        -----------------------------------------
Magnitude (a.u.)       :      4.11797
Magnitude (Debye)      :     10.46704

Rotational constants in cm-1:     0.044680     0.028958     0.019773
Rotational constants in MHz :  1339.486245   868.136755   592.791310

                             ****ORCA TERMINATED NORMALLY****
TOTAL RUN TIME: 0 days 0 hours 0 minutes 47 seconds 0 msec
