                         Program Version 5.0.0 -  RELEASE  -
|  1> !wB97X-D3 RIJCOSX def2-SVPD def2/J TightSCF CPCM(Water)
|  2> *xyz 0 1
|  3> C         -0.05517        1.61942       -3.78858
|  4> C          1.22302        2.46987       -3.75691
|  5> H          1.11470        3.25807       -4.53300
|  6> H          1.23773        3.01124       -2.79216
|  7> F          2.35381        1.71203       -3.93448
|  8> H         -0.10198        1.08015       -4.71156
|  9> H         -0.91014        2.25726       -3.70441
| 10> H         -0.04403        0.92826       -2.97183
| 11> *
| 12>
| 13> %MaxCore 64000
| 14>
| 15> %pal nprocs 18
| 16> end
| 17>
| 18> %scf
| 19>   MaxIter 150
| 20> end
| 21>
| 22>
| 23>                          ****END OF INPUT****

CARTESIAN COORDINATES (ANGSTROEM)
---------------------------------
  C     -0.055170    1.619420   -3.788580
  C      1.223020    2.469870   -3.756910
  H      1.114700    3.258070   -4.533000
  H      1.237730    3.011240   -2.792160
  F      2.353810    1.712030   -3.934480
  H     -0.101980    1.080150   -4.711560
  H     -0.910140    2.257260   -3.704410
  H     -0.044030    0.928260   -2.971830

 Total Charge           Charge          ....    0
 Multiplicity           Mult            ....    1
 Number of Electrons    NEL             ....   26
 Basis Dimension        Dim             ....  103

ORBITAL ENERGIES
----------------

  NO   OCC          E(Eh)            E(eV)
   0   2.0000     -24.796460      -674.7460
   1   2.0000     -10.364074      -282.0208
   2   2.0000     -10.275944      -279.6227
   3   2.0000      -1.305228       -35.5171
   4   2.0000      -0.867767       -23.6132
   5   2.0000      -0.733522       -19.9602
   6   2.0000      -0.614165       -16.7123
   7   2.0000      -0.600260       -16.3339
   8   2.0000      -0.564115       -15.3504
   9   2.0000      -0.502363       -13.6700
  10   2.0000      -0.490140       -13.3374
  11   2.0000      -0.432646       -11.7729
  12   2.0000      -0.424562       -11.5529
  13   0.0000       0.101129         2.7519
  14   0.0000       0.129474         3.5232
  15   0.0000       0.154667         4.2087
  16   0.0000       0.166293         4.5251
  17   0.0000       0.197571         5.3762

MULLIKEN ATOMIC CHARGES
-----------------------
   0 C :    0.198870
   1 C :    0.335900
   2 H :   -0.000330
   3 H :   -0.015383
   4 F :   -0.483468
   5 H :   -0.025381
   6 H :    0.011505
   7 H :   -0.021713
Sum of atomic charges:    0.0000000

LOEWDIN ATOMIC CHARGES
----------------------
   0 C :    0.131632
   1 C :    0.071119
   2 H :    0.039178
   3 H :    0.036613
   4 F :   -0.247677
   5 H :   -0.012361
   6 H :   -0.005657
   7 H :   -0.012846

  Mayer bond orders larger than 0.100000
B(  0-C ,  1-C ) :   1.3302 B(  0-C ,  5-H ) :   0.9063 B(  0-C ,  6-H ) :   0.8802
B(  0-C ,  7-H ) :   0.9083 B(  1-C ,  2-H ) :   0.9570 B(  1-C ,  3-H ) :   0.9637
B(  1-C ,  4-F ) :   0.7165 B(  1-C ,  5-H ) :   0.1250 B(  1-C ,  6-H ) :   0.1066
B(  1-C ,  7-H ) :   0.1189

Dispersion correction           -0.000872722
FINAL SINGLE POINT ENERGY      -178.893060354740

DIPOLE MOMENT
-------------
                                X             Y             Z
Electronic contribution:      4.85686      -0.61516      -0.40507
Nuclear contribution   :     -5.66833       1.07099       0.52006
                        -----------------------------------------
Total Dipole Moment    :     -0.81147       0.45583       0.11499
                        -----------------------------------------
Magnitude (a.u.)       :      0.93780
Magnitude (Debye)      :      2.38371

Rotational constants in cm-1:     1.245689     0.305293     0.269541
Rotational constants in MHz : 37344.801915  9152.442838  8080.640229

                             ****ORCA TERMINATED NORMALLY****
TOTAL RUN TIME: 0 days 0 hours 0 minutes 6 seconds 133 msec
