                         Program Version 5.0.0 -  RELEASE  -
|  1> !wB97X-D3 RIJCOSX def2-SVPD def2/J TightSCF CPCM(Water)
|  2> *xyz 0 1
|  3> C          1.63556       -1.67040       -5.29211
|  4> C          0.33848       -1.50091       -4.50540
|  5> C          2.48451       -0.50741       -5.14039
|  6> H          1.39834       -1.82924       -6.35259
|  7> H          2.15586       -2.56540       -4.93209
|  8> C          3.45115       -0.14953       -5.95259
|  9> N          3.92267        1.08956       -5.85071
| 10> N          3.96616       -1.00618       -6.86788
| 11> H          3.52139       -1.90647       -6.99527
| 12> H          4.44482       -0.62347       -7.67035
| 13> H          2.25200        0.24080       -4.49879
| 14> H          3.46428        1.64078       -5.13639
| 15> H          4.83447        1.31375       -6.22465
| 16> H         -0.17658       -0.62881       -4.85045
| 17> H          0.56384       -1.39374       -3.46490
| 18> H         -0.28102       -2.36136       -4.64938
| 19> *
| 20>
| 21> %MaxCore 64000
| 22>
| 23> %pal nprocs 18
| 24> end
| 25>
| 26> %scf
| 27>   MaxIter 150
| 28> end
| 29>
| 30>
| 31>                          ****END OF INPUT****

CARTESIAN COORDINATES (ANGSTROEM)
---------------------------------
  C      1.635560   -1.670400   -5.292110
  C      0.338480   -1.500910   -4.505400
  C      2.484510   -0.507410   -5.140390
  H      1.398340   -1.829240   -6.352590
  H      2.155860   -2.565400   -4.932090
  C      3.451150   -0.149530   -5.952590
  N      3.922670    1.089560   -5.850710
  N      3.966160   -1.006180   -6.867880
  H      3.521390   -1.906470   -6.995270
  H      4.444820   -0.623470   -7.670350
  H      2.252000    0.240800   -4.498790
  H      3.464280    1.640780   -5.136390
  H      4.834470    1.313750   -6.224650
  H     -0.176580   -0.628810   -4.850450
  H      0.563840   -1.393740   -3.464900
  H     -0.281020   -2.361360   -4.649380

 Total Charge           Charge          ....    0
 Multiplicity           Mult            ....    1
 Number of Electrons    NEL             ....   48
 Basis Dimension        Dim             ....  200

ORBITAL ENERGIES
----------------

  NO   OCC          E(Eh)            E(eV)
   0   2.0000     -14.432831      -392.7373
   1   2.0000     -14.427420      -392.5901
   2   2.0000     -10.332594      -281.1642
   3   2.0000     -10.270434      -279.4727
   4   2.0000     -10.262673      -279.2615
   5   2.0000     -10.213165      -277.9143
   6   2.0000      -1.065261       -28.9872
   7   2.0000      -0.972289       -26.4573
   8   2.0000      -0.890765       -24.2390
   9   2.0000      -0.808120       -21.9901
  10   2.0000      -0.717483       -19.5237
  11   2.0000      -0.681672       -18.5492
  12   2.0000      -0.632117       -17.2008
  13   2.0000      -0.612568       -16.6688
  14   2.0000      -0.559334       -15.2203
  15   2.0000      -0.547516       -14.8987
  16   2.0000      -0.529030       -14.3956
  17   2.0000      -0.498673       -13.5696
  18   2.0000      -0.480197       -13.0668
  19   2.0000      -0.440920       -11.9980
  20   2.0000      -0.429352       -11.6833
  21   2.0000      -0.427756       -11.6398
  22   2.0000      -0.357918        -9.7394
  23   2.0000      -0.254221        -6.9177
  24   0.0000       0.097487         2.6527
  25   0.0000       0.115585         3.1452
  26   0.0000       0.124701         3.3933
  27   0.0000       0.140471         3.8224
  28   0.0000       0.152955         4.1621

MULLIKEN ATOMIC CHARGES
-----------------------
   0 C :   -0.282332
   1 C :    0.874460
   2 C :   -0.094618
   3 H :   -0.137942
   4 H :   -0.088968
   5 C :    0.392401
   6 N :   -0.017214
   7 N :   -0.140467
   8 H :    0.030822
   9 H :   -0.091045
  10 H :   -0.334775
  11 H :    0.121809
  12 H :   -0.132297
  13 H :   -0.011066
  14 H :    0.000267
  15 H :   -0.089035
Sum of atomic charges:   -0.0000000

LOEWDIN ATOMIC CHARGES
----------------------
   0 C :   -0.123991
   1 C :    0.103881
   2 C :   -0.061596
   3 H :    0.019879
   4 H :    0.018022
   5 C :   -0.242416
   6 N :    0.172698
   7 N :    0.201071
   8 H :   -0.006721
   9 H :    0.003923
  10 H :   -0.053161
  11 H :    0.009971
  12 H :    0.009109
  13 H :   -0.014696
  14 H :   -0.014587
  15 H :   -0.021386

  Mayer bond orders larger than 0.100000
B(  0-C ,  1-C ) :   1.1928 B(  0-C ,  2-C ) :   1.0116 B(  0-C ,  3-H ) :   0.9015
B(  0-C ,  4-H ) :   0.7899 B(  0-C , 10-H ) :   0.1957 B(  0-C , 13-H ) :   0.2120
B(  0-C , 14-H ) :   0.2250 B(  0-C , 15-H ) :   0.3025 B(  1-C , 13-H ) :   0.7846
B(  1-C , 14-H ) :   0.7393 B(  1-C , 15-H ) :   0.7110 B(  2-C ,  3-H ) :   0.1275
B(  2-C ,  4-H ) :   0.2518 B(  2-C ,  5-C ) :   1.6965 B(  2-C ,  6-N ) :   0.2899
B(  2-C ,  7-N ) :   0.1947 B(  2-C ,  8-H ) :  -0.1316 B(  2-C , 10-H ) :   0.8857
B(  5-C ,  6-N ) :   1.0301 B(  5-C ,  7-N ) :   1.0032 B(  6-N , 11-H ) :   1.0012
B(  6-N , 12-H ) :   1.1907 B(  7-N ,  8-H ) :   1.0063 B(  7-N ,  9-H ) :   1.1935
B(  8-H ,  9-H ) :  -0.1244 B( 11-H , 12-H ) :  -0.1314

Dispersion correction           -0.003473136
FINAL SINGLE POINT ENERGY      -267.679340052601

DIPOLE MOMENT
-------------
                                X             Y             Z
Electronic contribution:      4.65689       2.23348      -2.12536
Nuclear contribution   :     -3.99655      -1.83277       1.34879
                        -----------------------------------------
Total Dipole Moment    :      0.66035       0.40071      -0.77658
                        -----------------------------------------
Magnitude (a.u.)       :      1.09530
Magnitude (Debye)      :      2.78404

Rotational constants in cm-1:     0.262971     0.067064     0.055026
Rotational constants in MHz :  7883.664566  2010.513309  1649.636654

                             ****ORCA TERMINATED NORMALLY****
TOTAL RUN TIME: 0 days 0 hours 0 minutes 15 seconds 388 msec
