                         Program Version 5.0.0 -  RELEASE  -
|  1> !wB97X-D3 RIJCOSX def2-SVPD def2/J TightSCF CPCM(Water)
|  2> *xyz 0 1
|  3> C          1.63556       -1.67040       -5.29211
|  4> C          0.33848       -1.50091       -4.50540
|  5> N          2.48451       -0.50741       -5.14039
|  6> H          1.39834       -1.82924       -6.35259
|  7> H          2.15586       -2.56540       -4.93209
|  8> C          3.45115       -0.14953       -5.95259
|  9> C          3.92267        1.08956       -5.85071
| 10> N          3.96616       -1.00618       -6.86788
| 11> H          3.52139       -1.90647       -6.99527
| 12> H          4.44482       -0.62347       -7.67035
| 13> H          2.25200        0.24080       -4.49879
| 14> H          3.46428        1.64078       -5.13639
| 15> H          4.83447        1.31375       -6.22465
| 16> H         -0.17658       -0.62881       -4.85045
| 17> H          0.56384       -1.39374       -3.46490
| 18> H         -0.28102       -2.36136       -4.64938
| 19> *
| 20>
| 21> %MaxCore 64000
| 22>
| 23> %pal nprocs 18
| 24> end
| 25>
| 26> %scf
| 27>   MaxIter 150
| 28> end
| 29>
| 30>
| 31>                          ****END OF INPUT****

CARTESIAN COORDINATES (ANGSTROEM)
---------------------------------
  C      1.635560   -1.670400   -5.292110
  C      0.338480   -1.500910   -4.505400
  N      2.484510   -0.507410   -5.140390
  H      1.398340   -1.829240   -6.352590
  H      2.155860   -2.565400   -4.932090
  C      3.451150   -0.149530   -5.952590
  C      3.922670    1.089560   -5.850710
  N      3.966160   -1.006180   -6.867880
  H      3.521390   -1.906470   -6.995270
  H      4.444820   -0.623470   -7.670350
  H      2.252000    0.240800   -4.498790
  H      3.464280    1.640780   -5.136390
  H      4.834470    1.313750   -6.224650
  H     -0.176580   -0.628810   -4.850450
  H      0.563840   -1.393740   -3.464900
  H     -0.281020   -2.361360   -4.649380

 Total Charge           Charge          ....    0
 Multiplicity           Mult            ....    1
 Number of Electrons    NEL             ....   48
 Basis Dimension        Dim             ....  200

ORBITAL ENERGIES
----------------

  NO   OCC          E(Eh)            E(eV)
   0   2.0000     -14.437069      -392.8526
   1   2.0000     -14.435450      -392.8086
   2   2.0000     -10.344349      -281.4841
   3   2.0000     -10.320888      -280.8456
   4   2.0000     -10.275103      -279.5998
   5   2.0000     -10.207239      -277.7531
   6   2.0000      -1.081976       -29.4421
   7   2.0000      -0.989726       -26.9318
   8   2.0000      -0.882091       -24.0029
   9   2.0000      -0.812955       -22.1216
  10   2.0000      -0.727122       -19.7860
  11   2.0000      -0.700897       -19.0724
  12   2.0000      -0.637145       -17.3376
  13   2.0000      -0.596737       -16.2380
  14   2.0000      -0.575302       -15.6548
  15   2.0000      -0.558014       -15.1843
  16   2.0000      -0.515968       -14.0402
  17   2.0000      -0.493503       -13.4289
  18   2.0000      -0.483810       -13.1651
  19   2.0000      -0.469378       -12.7724
  20   2.0000      -0.459810       -12.5121
  21   2.0000      -0.441348       -12.0097
  22   2.0000      -0.352515        -9.5924
  23   2.0000      -0.260450        -7.0872
  24   0.0000       0.093749         2.5510
  25   0.0000       0.115138         3.1331
  26   0.0000       0.122034         3.3207
  27   0.0000       0.135682         3.6921
  28   0.0000       0.154945         4.2163

MULLIKEN ATOMIC CHARGES
-----------------------
   0 C :    0.007869
   1 C :    0.697367
   2 N :   -0.403552
   3 H :   -0.083554
   4 H :   -0.114696
   5 C :    0.393964
   6 C :    0.439593
   7 N :   -0.061064
   8 H :   -0.082963
   9 H :   -0.003114
  10 H :   -0.075269
  11 H :   -0.210420
  12 H :   -0.424271
  13 H :   -0.027599
  14 H :   -0.009147
  15 H :   -0.043145
Sum of atomic charges:    0.0000000

LOEWDIN ATOMIC CHARGES
----------------------
   0 C :    0.000271
   1 C :    0.129314
   2 N :   -0.026066
   3 H :    0.027894
   4 H :    0.025733
   5 C :   -0.247583
   6 C :    0.100721
   7 N :    0.201668
   8 H :   -0.011970
   9 H :    0.014494
  10 H :    0.039043
  11 H :   -0.111380
  12 H :   -0.110061
  13 H :   -0.010533
  14 H :   -0.010733
  15 H :   -0.010812

  Mayer bond orders larger than 0.100000
B(  0-C ,  1-C ) :   1.2605 B(  0-C ,  2-N ) :   0.8957 B(  0-C ,  3-H ) :   0.9096
B(  0-C ,  4-H ) :   0.9354 B(  0-C , 10-H ) :  -0.1145 B(  0-C , 13-H ) :   0.2113
B(  0-C , 14-H ) :   0.2250 B(  0-C , 15-H ) :   0.2702 B(  1-C , 13-H ) :   0.8049
B(  1-C , 14-H ) :   0.7533 B(  1-C , 15-H ) :   0.7602 B(  2-N ,  3-H ) :   0.1467
B(  2-N ,  4-H ) :   0.1819 B(  2-N ,  5-C ) :   1.1743 B(  2-N ,  6-C ) :   0.2402
B(  2-N ,  7-N ) :   0.1043 B(  2-N , 10-H ) :   1.1445 B(  5-C ,  6-C ) :   1.7513
B(  5-C ,  7-N ) :   0.9566 B(  5-C , 10-H ) :  -0.1487 B(  5-C , 11-H ) :   0.2334
B(  5-C , 12-H ) :   0.2849 B(  6-C ,  7-N ) :   0.2097 B(  6-C , 11-H ) :   0.8142
B(  6-C , 12-H ) :   0.6795 B(  7-N ,  8-H ) :   1.0300 B(  7-N ,  9-H ) :   1.1460
B(  8-H ,  9-H ) :  -0.1351

Dispersion correction           -0.003505480
FINAL SINGLE POINT ENERGY      -267.669218057342

DIPOLE MOMENT
-------------
                                X             Y             Z
Electronic contribution:      2.73182       0.18141      -1.31863
Nuclear contribution   :     -3.69145      -1.49398       1.19810
                        -----------------------------------------
Total Dipole Moment    :     -0.95963      -1.31257      -0.12053
                        -----------------------------------------
Magnitude (a.u.)       :      1.63042
Magnitude (Debye)      :      4.14419

Rotational constants in cm-1:     0.270790     0.068966     0.056679
Rotational constants in MHz :  8118.084803  2067.559423  1699.196934

                             ****ORCA TERMINATED NORMALLY****
TOTAL RUN TIME: 0 days 0 hours 0 minutes 14 seconds 523 msec
