                         Program Version 5.0.0 -  RELEASE  -
|  1> !wB97X-D3 RIJCOSX def2-SVPD def2/J TightSCF CPCM(Water)
|  2> *xyz 0 1
|  3> C          1.63556       -1.67040       -5.29211
|  4> C          0.33848       -1.50091       -4.50540
|  5> N          2.48451       -0.50741       -5.14039
|  6> H          1.39834       -1.82924       -6.35259
|  7> H          2.15586       -2.56540       -4.93209
|  8> C          3.45115       -0.14953       -5.95259
|  9> N          3.92267        1.08956       -5.85071
| 10> C          3.96616       -1.00618       -6.86788
| 11> H          3.52139       -1.90647       -6.99527
| 12> H          4.44482       -0.62347       -7.67035
| 13> H          2.25200        0.24080       -4.49879
| 14> H          3.46428        1.64078       -5.13639
| 15> H          4.83447        1.31375       -6.22465
| 16> H         -0.17658       -0.62881       -4.85045
| 17> H          0.56384       -1.39374       -3.46490
| 18> H         -0.28102       -2.36136       -4.64938
| 19> *
| 20>
| 21> %MaxCore 64000
| 22>
| 23> %pal nprocs 18
| 24> end
| 25>
| 26> %scf
| 27>   MaxIter 150
| 28> end
| 29>
| 30>
| 31>                          ****END OF INPUT****

CARTESIAN COORDINATES (ANGSTROEM)
---------------------------------
  C      1.635560   -1.670400   -5.292110
  C      0.338480   -1.500910   -4.505400
  N      2.484510   -0.507410   -5.140390
  H      1.398340   -1.829240   -6.352590
  H      2.155860   -2.565400   -4.932090
  C      3.451150   -0.149530   -5.952590
  N      3.922670    1.089560   -5.850710
  C      3.966160   -1.006180   -6.867880
  H      3.521390   -1.906470   -6.995270
  H      4.444820   -0.623470   -7.670350
  H      2.252000    0.240800   -4.498790
  H      3.464280    1.640780   -5.136390
  H      4.834470    1.313750   -6.224650
  H     -0.176580   -0.628810   -4.850450
  H      0.563840   -1.393740   -3.464900
  H     -0.281020   -2.361360   -4.649380

 Total Charge           Charge          ....    0
 Multiplicity           Mult            ....    1
 Number of Electrons    NEL             ....   48
 Basis Dimension        Dim             ....  200

ORBITAL ENERGIES
----------------

  NO   OCC          E(Eh)            E(eV)
   0   2.0000     -14.441853      -392.9828
   1   2.0000     -14.435111      -392.7993
   2   2.0000     -10.345921      -281.5268
   3   2.0000     -10.320963      -280.8477
   4   2.0000     -10.274490      -279.5831
   5   2.0000     -10.210104      -277.8310
   6   2.0000      -1.089440       -29.6452
   7   2.0000      -0.994128       -27.0516
   8   2.0000      -0.867723       -23.6119
   9   2.0000      -0.819620       -22.3030
  10   2.0000      -0.745445       -20.2846
  11   2.0000      -0.671238       -18.2653
  12   2.0000      -0.638613       -17.3775
  13   2.0000      -0.624914       -17.0048
  14   2.0000      -0.573880       -15.6161
  15   2.0000      -0.561359       -15.2754
  16   2.0000      -0.503098       -13.6900
  17   2.0000      -0.494144       -13.4463
  18   2.0000      -0.485169       -13.2021
  19   2.0000      -0.473116       -12.8742
  20   2.0000      -0.454792       -12.3755
  21   2.0000      -0.443754       -12.0752
  22   2.0000      -0.344368        -9.3707
  23   2.0000      -0.266300        -7.2464
  24   0.0000       0.095354         2.5947
  25   0.0000       0.114913         3.1270
  26   0.0000       0.119978         3.2648
  27   0.0000       0.138582         3.7710
  28   0.0000       0.151670         4.1271

MULLIKEN ATOMIC CHARGES
-----------------------
   0 C :    0.042224
   1 C :    0.707752
   2 N :   -0.439399
   3 H :   -0.066558
   4 H :   -0.085949
   5 C :    0.286503
   6 N :    0.023643
   7 C :    0.427991
   8 H :   -0.158076
   9 H :   -0.413635
  10 H :   -0.167552
  11 H :   -0.035792
  12 H :   -0.042612
  13 H :   -0.022916
  14 H :   -0.012515
  15 H :   -0.043107
Sum of atomic charges:   -0.0000000

LOEWDIN ATOMIC CHARGES
----------------------
   0 C :    0.004589
   1 C :    0.128945
   2 N :   -0.022339
   3 H :    0.027129
   4 H :    0.028766
   5 C :   -0.252750
   6 N :    0.190222
   7 C :    0.116217
   8 H :   -0.136862
   9 H :   -0.120194
  10 H :    0.038463
  11 H :    0.008396
  12 H :    0.022751
  13 H :   -0.011164
  14 H :   -0.011587
  15 H :   -0.010583

  Mayer bond orders larger than 0.100000
B(  0-C ,  1-C ) :   1.2539 B(  0-C ,  2-N ) :   0.9129 B(  0-C ,  3-H ) :   0.8930
B(  0-C ,  4-H ) :   0.9194 B(  0-C , 10-H ) :  -0.1131 B(  0-C , 13-H ) :   0.1984
B(  0-C , 14-H ) :   0.2302 B(  0-C , 15-H ) :   0.2662 B(  1-C , 13-H ) :   0.8096
B(  1-C , 14-H ) :   0.7409 B(  1-C , 15-H ) :   0.7589 B(  2-N ,  3-H ) :   0.1722
B(  2-N ,  4-H ) :   0.1541 B(  2-N ,  5-C ) :   1.1569 B(  2-N ,  6-N ) :   0.1740
B(  2-N ,  7-C ) :   0.2911 B(  2-N , 10-H ) :   1.2205 B(  5-C ,  6-N ) :   1.0070
B(  5-C ,  7-C ) :   1.8327 B(  5-C ,  8-H ) :   0.2936 B(  5-C ,  9-H ) :   0.2472
B(  5-C , 10-H ) :  -0.1951 B(  6-N ,  7-C ) :   0.2279 B(  6-N , 11-H ) :   1.0438
B(  6-N , 12-H ) :   1.1835 B(  7-C ,  8-H ) :   0.6691 B(  7-C ,  9-H ) :   0.7577
B(  8-H ,  9-H ) :   0.2324 B( 11-H , 12-H ) :  -0.1236

Dispersion correction           -0.003486481
FINAL SINGLE POINT ENERGY      -267.671400597819

DIPOLE MOMENT
-------------
                                X             Y             Z
Electronic contribution:      2.73244       2.97056       0.12968
Nuclear contribution   :     -3.68222      -1.93858       0.98231
                        -----------------------------------------
Total Dipole Moment    :     -0.94978       1.03198       1.11199
                        -----------------------------------------
Magnitude (a.u.)       :      1.78986
Magnitude (Debye)      :      4.54945

Rotational constants in cm-1:     0.275407     0.068040     0.056255
Rotational constants in MHz :  8256.498401  2039.796466  1686.484500

                             ****ORCA TERMINATED NORMALLY****
TOTAL RUN TIME: 0 days 0 hours 0 minutes 14 seconds 35 msec
