                         Program Version 5.0.0 -  RELEASE  -
|  1> !wB97X-D3 RIJCOSX def2-SVPD def2/J TightSCF CPCM(Water) xyzfile
|  2>
|  3> *xyzfile 0 1 D2.xyz
|  4>
|  5> %MaxCore 64000
|  6>
|  7> %pal nprocs 18
|  8> end
|  9>
| 10> %scf
| 11>   MaxIter 150
| 12> end
| 13>
| 14>
| 15>                          ****END OF INPUT****

CARTESIAN COORDINATES (ANGSTROEM)
---------------------------------
  C      1.635557   -1.670396   -5.292109
  C      0.338484   -1.500907   -4.505398
  N      2.484511   -0.507410   -5.140392
  C     -0.684873   -0.528026   -5.099889
  C     -0.290406    0.951335   -5.153423
  H      0.607991    1.070692   -5.764412
  C     -0.055168    1.619420   -3.788577
  H     -1.080912    1.483775   -5.689436
  H      0.045006    0.862302   -3.003015
  H     -0.922936    2.230329   -3.517028
  C      1.223022    2.469865   -3.756911
  H      1.114701    3.258074   -4.532999
  H      1.237732    3.011242   -2.792157
  F      2.353815    1.712032   -3.934477
  H      1.398337   -1.829239   -6.352591
  H      2.155864   -2.565398   -4.932091
  C      3.451149   -0.149530   -5.952589
  C      3.922667    1.089559   -5.850711
  N      3.966162   -1.006183   -6.867880
  H      3.521391   -1.906467   -6.995270
  H      4.444824   -0.623472   -7.670348
  H      2.251995    0.240804   -4.498792
  H      3.464277    1.640782   -5.136392
  H      4.834470    1.313745   -6.224653
  H     -0.937999   -0.869056   -6.110838
  H     -1.604638   -0.622496   -4.513132
  H      0.594887   -1.211578   -3.482312
  H     -0.126530   -2.487656   -4.434176

 Total Charge           Charge          ....    0
 Multiplicity           Mult            ....    1
 Number of Electrons    NEL             ....   88
 Basis Dimension        Dim             ....  359

ORBITAL ENERGIES
----------------

  NO   OCC          E(Eh)            E(eV)
   0   2.0000     -24.817557      -675.3201
   1   2.0000     -14.430673      -392.6786
   2   2.0000     -14.419143      -392.3648
   3   2.0000     -10.369648      -282.1725
   4   2.0000     -10.335896      -281.2540
   5   2.0000     -10.314198      -280.6636
   6   2.0000     -10.289674      -279.9963
   7   2.0000     -10.283530      -279.8291
   8   2.0000     -10.281655      -279.7781
   9   2.0000     -10.281057      -279.7618
  10   2.0000     -10.191543      -277.3260
  11   2.0000      -1.335559       -36.3424
  12   2.0000      -1.073872       -29.2216
  13   2.0000      -0.984561       -26.7913
  14   2.0000      -0.920518       -25.0486
  15   2.0000      -0.880377       -23.9563
  16   2.0000      -0.846123       -23.0242
  17   2.0000      -0.797160       -21.6918
  18   2.0000      -0.755766       -20.5654
  19   2.0000      -0.725765       -19.7491
  20   2.0000      -0.692290       -18.8382
  21   2.0000      -0.666634       -18.1400
  22   2.0000      -0.649484       -17.6734
  23   2.0000      -0.621408       -16.9094
  24   2.0000      -0.613767       -16.7015
  25   2.0000      -0.604668       -16.4538
  26   2.0000      -0.590777       -16.0759
  27   2.0000      -0.572316       -15.5735
  28   2.0000      -0.544497       -14.8165
  29   2.0000      -0.541708       -14.7406
  30   2.0000      -0.518165       -14.1000
  31   2.0000      -0.507544       -13.8110
  32   2.0000      -0.494342       -13.4517
  33   2.0000      -0.486431       -13.2365
  34   2.0000      -0.462263       -12.5788
  35   2.0000      -0.459631       -12.5072
  36   2.0000      -0.450510       -12.2590
  37   2.0000      -0.440997       -12.0001
  38   2.0000      -0.427603       -11.6357
  39   2.0000      -0.411983       -11.2106
  40   2.0000      -0.407243       -11.0816
  41   2.0000      -0.403508       -10.9800
  42   2.0000      -0.342918        -9.3313
  43   2.0000      -0.251980        -6.8567
  44   0.0000       0.093552         2.5457
  45   0.0000       0.108150         2.9429
  46   0.0000       0.108336         2.9480
  47   0.0000       0.117777         3.2049
  48   0.0000       0.131987         3.5916

MULLIKEN ATOMIC CHARGES
-----------------------
   0 C :    0.630064
   1 C :    0.095701
   2 N :   -0.113017
   3 C :    0.156277
   4 C :    0.029495
   5 H :    0.091020
   6 C :   -0.093468
   7 H :   -0.244941
   8 H :   -0.020586
   9 H :   -0.103739
  10 C :    0.893533
  11 H :   -0.009182
  12 H :   -0.012060
  13 F :   -0.822315
  14 H :   -0.002934
  15 H :   -0.201471
  16 C :    0.535895
  17 C :    0.703206
  18 N :   -0.083506
  19 H :   -0.025189
  20 H :   -0.017430
  21 H :   -0.435782
  22 H :   -0.312822
  23 H :   -0.555829
  24 H :    0.120030
  25 H :   -0.087297
  26 H :    0.015744
  27 H :   -0.129396
Sum of atomic charges:    0.0000000

LOEWDIN ATOMIC CHARGES
----------------------
   0 C :    0.051852
   1 C :   -0.021992
   2 N :   -0.001828
   3 C :   -0.026326
   4 C :   -0.023661
   5 H :    0.004452
   6 C :    0.002938
   7 H :    0.022920
   8 H :    0.019344
   9 H :    0.037413
  10 C :    0.166836
  11 H :    0.054119
  12 H :    0.045369
  13 F :   -0.235985
  14 H :    0.028424
  15 H :    0.023401
  16 C :   -0.226505
  17 C :    0.124858
  18 N :    0.198795
  19 H :   -0.014273
  20 H :    0.011406
  21 H :   -0.058078
  22 H :   -0.166651
  23 H :   -0.112317
  24 H :    0.026270
  25 H :    0.025376
  26 H :    0.017716
  27 H :    0.026128

  Mayer bond orders larger than 0.100000
B(  0-C ,  1-C ) :   1.2055 B(  0-C ,  2-N ) :   0.9156 B(  0-C , 14-H ) :   0.7795
B(  0-C , 15-H ) :   0.8911 B(  0-C , 21-H ) :  -0.1798 B(  0-C , 26-H ) :   0.1255
B(  0-C , 27-H ) :   0.1900 B(  1-C ,  3-C ) :   1.2200 B(  1-C , 24-H ) :   0.1533
B(  1-C , 25-H ) :   0.1829 B(  1-C , 26-H ) :   0.7930 B(  1-C , 27-H ) :   0.8133
B(  2-N , 14-H ) :   0.3090 B(  2-N , 15-H ) :   0.1815 B(  2-N , 16-C ) :   1.0732
B(  2-N , 17-C ) :   0.3164 B(  2-N , 18-N ) :   0.1200 B(  2-N , 21-H ) :   1.0096
B(  3-C ,  4-C ) :   1.2876 B(  3-C ,  5-H ) :   0.1350 B(  3-C ,  7-H ) :   0.1217
B(  3-C , 24-H ) :   0.6857 B(  3-C , 25-H ) :   0.8600 B(  3-C , 26-H ) :   0.1464
B(  3-C , 27-H ) :   0.1353 B(  4-C ,  5-H ) :   0.8533 B(  4-C ,  6-C ) :   1.1910
B(  4-C ,  7-H ) :   0.8739 B(  4-C ,  8-H ) :   0.1202 B(  4-C ,  9-H ) :   0.1606
B(  4-C , 24-H ) :   0.2086 B(  4-C , 25-H ) :   0.1269 B(  6-C ,  8-H ) :   0.8887
B(  6-C ,  9-H ) :   0.9459 B(  6-C , 10-C ) :   1.1652 B(  6-C , 12-H ) :   0.1599
B(  6-C , 13-F ) :   0.1339 B( 10-C , 11-H ) :   0.8600 B( 10-C , 12-H ) :   0.8300
B( 10-C , 13-F ) :   0.6507 B( 11-H , 13-F ) :   0.2004 B( 13-F , 22-H ) :   0.2192
B( 16-C , 17-C ) :   1.6449 B( 16-C , 18-N ) :   0.8419 B( 16-C , 20-H ) :  -0.1147
B( 16-C , 21-H ) :  -0.3493 B( 16-C , 22-H ) :   0.3089 B( 16-C , 23-H ) :   0.4168
B( 17-C , 18-N ) :   0.2952 B( 17-C , 22-H ) :   0.5362 B( 17-C , 23-H ) :   0.4577
B( 18-N , 19-H ) :   0.9754 B( 18-N , 20-H ) :   1.1764 B( 19-H , 20-H ) :  -0.1445
B( 21-H , 22-H ) :  -0.1188

Dispersion correction           -0.011866316
FINAL SINGLE POINT ENERGY      -523.899661619943

DIPOLE MOMENT
-------------
                                X             Y             Z
Electronic contribution:      5.83788       2.14276       1.76587
Nuclear contribution   :     -7.85451      -2.70006      -1.48294
                        -----------------------------------------
Total Dipole Moment    :     -2.01663      -0.55730       0.28293
                        -----------------------------------------
Magnitude (a.u.)       :      2.11126
Magnitude (Debye)      :      5.36640

Rotational constants in cm-1:     0.044065     0.029250     0.019826
Rotational constants in MHz :  1321.026981   876.903192   594.367265

                             ****ORCA TERMINATED NORMALLY****
TOTAL RUN TIME: 0 days 0 hours 0 minutes 50 seconds 241 msec
