                         Program Version 5.0.0 -  RELEASE  -
|  1> !PBE0 D3BJ RIJCOSX def2-SVPD def2/J TightSCF
|  2> *xyz -1 1
|  3> C          1.69499        1.54179       -5.57045
|  4> S          1.78029       -0.03313       -6.42874
|  5> O          2.56929        0.21366       -7.60736
|  6> O          0.41688       -0.46297       -6.61859
|  7> O          2.50513       -0.93326       -5.48257
|  8> H          1.18489        2.25500       -6.18367
|  9> H          2.68564        1.89081       -5.36624
| 10> H          1.16361        1.41804       -4.65000
| 11> *
| 12> %MaxCore 64000
| 13>
| 14> %pal nprocs 8
| 15> end
| 16>
| 17> %scf
| 18>   MaxIter 150
| 19> end
| 20>
| 21>
| 22>                          ****END OF INPUT****

CARTESIAN COORDINATES (ANGSTROEM)
---------------------------------
  C      1.694990    1.541790   -5.570450
  S      1.780290   -0.033130   -6.428740
  O      2.569290    0.213660   -7.607360
  O      0.416880   -0.462970   -6.618590
  O      2.505130   -0.933260   -5.482570
  H      1.184890    2.255000   -6.183670
  H      2.685640    1.890810   -5.366240
  H      1.163610    1.418040   -4.650000

 Total Charge           Charge          ....   -1
 Multiplicity           Mult            ....    1
 Number of Electrons    NEL             ....   50
 Basis Dimension        Dim             ....  140

ORBITAL ENERGIES
----------------

  NO   OCC          E(Eh)            E(eV)
   0   2.0000     -89.037395     -2422.8307
   1   2.0000     -18.998128      -516.9653
   2   2.0000     -18.996942      -516.9331
   3   2.0000     -18.979980      -516.4715
   4   2.0000     -10.085036      -274.4278
   5   2.0000      -7.996841      -217.6051
   6   2.0000      -5.939076      -161.6105
   7   2.0000      -5.938901      -161.6057
   8   2.0000      -5.938639      -161.5986
   9   2.0000      -0.957614       -26.0580
  10   2.0000      -0.821364       -22.3504
  11   2.0000      -0.787242       -21.4219
  12   2.0000      -0.600567       -16.3423
  13   2.0000      -0.404494       -11.0068
  14   2.0000      -0.319065        -8.6822
  15   2.0000      -0.304938        -8.2978
  16   2.0000      -0.304104        -8.2751
  17   2.0000      -0.264056        -7.1853
  18   2.0000      -0.260694        -7.0938
  19   2.0000      -0.166240        -4.5236
  20   2.0000      -0.164560        -4.4779
  21   2.0000      -0.130433        -3.5493
  22   2.0000      -0.124345        -3.3836
  23   2.0000      -0.109365        -2.9760
  24   2.0000      -0.075233        -2.0472
  25   0.0000       0.157511         4.2861
  26   0.0000       0.189838         5.1658
  27   0.0000       0.190385         5.1807
  28   0.0000       0.194223         5.2851
  29   0.0000       0.219744         5.9795

MULLIKEN ATOMIC CHARGES
-----------------------
   0 C :    0.308084
   1 S :    1.175397
   2 O :   -0.787527
   3 O :   -0.789606
   4 O :   -0.842303
   5 H :   -0.024407
   6 H :   -0.017530
   7 H :   -0.022107
Sum of atomic charges:   -1.0000000

LOEWDIN ATOMIC CHARGES
----------------------
   0 C :    0.049415
   1 S :    0.841321
   2 O :   -0.584098
   3 O :   -0.583313
   4 O :   -0.612550
   5 H :   -0.038747
   6 H :   -0.035729
   7 H :   -0.036300

  Mayer bond orders larger than 0.100000
B(  0-C ,  1-S ) :   0.9547 B(  0-C ,  5-H ) :   0.9378 B(  0-C ,  6-H ) :   0.9391
B(  0-C ,  7-H ) :   0.9419 B(  1-S ,  2-O ) :   1.3152 B(  1-S ,  3-O ) :   1.3115
B(  1-S ,  4-O ) :   1.2738 B(  1-S ,  6-H ) :   0.1077 B(  1-S ,  7-H ) :   0.1073

Dispersion correction           -0.005341757
FINAL SINGLE POINT ENERGY      -663.075954387945

DIPOLE MOMENT
-------------
                                X             Y             Z
Electronic contribution:      0.11865      -3.68222      -2.17576
Nuclear contribution   :     -0.31747       5.08000       2.69095
                        -----------------------------------------
Total Dipole Moment    :     -0.19882       1.39778       0.51519
                        -----------------------------------------
Magnitude (a.u.)       :      1.50291
Magnitude (Debye)      :      3.82009

Rotational constants in cm-1:     0.172246     0.157831     0.154490
Rotational constants in MHz :  5163.797750  4731.657963  4631.481993

                             ****ORCA TERMINATED NORMALLY****
TOTAL RUN TIME: 0 days 0 hours 0 minutes 6 seconds 973 msec
