                         Program Version 5.0.0 -  RELEASE  -
|  1> !PBE0 D3BJ RIJCOSX def2-SVPD def2/J TightSCF
|  2> *xyz 1 1
|  3> C          1.96337       -1.74915       -1.89689
|  4> N          2.73849       -2.01517       -3.09711
|  5> C          4.04974       -2.15472       -3.15204
|  6> N          4.65821       -1.98629       -4.31866
|  7> N          4.76423       -2.45444       -2.05049
|  8> H          4.28736       -2.77626       -1.21750
|  9> H          5.75082       -2.65835       -2.12599
| 10> H          2.34518       -1.69027       -3.97145
| 11> H          4.10900       -1.59268       -5.07176
| 12> H          5.64910       -2.15646       -4.42724
| 13> H          0.92556       -1.68522       -2.14942
| 14> H          2.28268       -0.82430       -1.46378
| 15> H          2.11118       -2.54207       -1.19381
| 16> *
| 17> %MaxCore 64000
| 18>
| 19> %pal nprocs 8
| 20> end
| 21>
| 22> %scf
| 23>   MaxIter 150
| 24> end
| 25>
| 26>
| 27>                          ****END OF INPUT****

CARTESIAN COORDINATES (ANGSTROEM)
---------------------------------
  C      1.963370   -1.749150   -1.896890
  N      2.738490   -2.015170   -3.097110
  C      4.049740   -2.154720   -3.152040
  N      4.658210   -1.986290   -4.318660
  N      4.764230   -2.454440   -2.050490
  H      4.287360   -2.776260   -1.217500
  H      5.750820   -2.658350   -2.125990
  H      2.345180   -1.690270   -3.971450
  H      4.109000   -1.592680   -5.071760
  H      5.649100   -2.156460   -4.427240
  H      0.925560   -1.685220   -2.149420
  H      2.282680   -0.824300   -1.463780
  H      2.111180   -2.542070   -1.193810

 Total Charge           Charge          ....    1
 Multiplicity           Mult            ....    1
 Number of Electrons    NEL             ....   40
 Basis Dimension        Dim             ....  164

ORBITAL ENERGIES
----------------

  NO   OCC          E(Eh)            E(eV)
   0   2.0000     -14.628277      -398.0557
   1   2.0000     -14.625283      -397.9742
   2   2.0000     -14.624072      -397.9412
   3   2.0000     -10.572238      -287.6852
   4   2.0000     -10.438446      -284.0446
   5   2.0000      -1.242771       -33.8175
   6   2.0000      -1.128500       -30.7080
   7   2.0000      -1.115149       -30.3447
   8   2.0000      -0.927720       -25.2445
   9   2.0000      -0.848054       -23.0767
  10   2.0000      -0.806318       -21.9410
  11   2.0000      -0.777523       -21.1575
  12   2.0000      -0.714926       -19.4541
  13   2.0000      -0.707707       -19.2577
  14   2.0000      -0.673089       -18.3157
  15   2.0000      -0.664803       -18.0902
  16   2.0000      -0.607619       -16.5342
  17   2.0000      -0.593210       -16.1421
  18   2.0000      -0.496161       -13.5012
  19   2.0000      -0.472952       -12.8697
  20   0.0000      -0.169741        -4.6189
  21   0.0000      -0.152216        -4.1420
  22   0.0000      -0.113675        -3.0933
  23   0.0000      -0.108269        -2.9462
  24   0.0000      -0.081005        -2.2043

MULLIKEN ATOMIC CHARGES
-----------------------
   0 C :    0.965424
   1 N :   -0.648874
   2 C :    1.594239
   3 N :   -0.222539
   4 N :   -0.152703
   5 H :   -0.026601
   6 H :   -0.083112
   7 H :   -0.161524
   8 H :    0.026035
   9 H :   -0.057917
  10 H :   -0.191704
  11 H :   -0.000641
  12 H :   -0.040082
Sum of atomic charges:    1.0000000

LOEWDIN ATOMIC CHARGES
----------------------
   0 C :    0.255509
   1 N :    0.006966
   2 C :   -0.030569
   3 N :    0.259371
   4 N :    0.276712
   5 H :    0.025437
   6 H :    0.038506
   7 H :    0.054025
   8 H :    0.040205
   9 H :    0.045514
  10 H :    0.016527
  11 H :    0.011989
  12 H :   -0.000192

  Mayer bond orders larger than 0.100000
B(  0-C ,  1-N ) :   0.8943 B(  0-C , 10-H ) :   0.8521 B(  0-C , 11-H ) :   0.8566
B(  0-C , 12-H ) :   0.8551 B(  1-N ,  2-C ) :   0.9692 B(  1-N ,  3-N ) :   0.2742
B(  1-N ,  4-N ) :   0.2211 B(  1-N ,  7-H ) :   1.2553 B(  1-N , 10-H ) :   0.1704
B(  1-N , 11-H ) :   0.1123 B(  1-N , 12-H ) :   0.1515 B(  2-C ,  3-N ) :   0.7232
B(  2-C ,  4-N ) :   0.8649 B(  2-C ,  5-H ) :  -0.1393 B(  2-C ,  6-H ) :  -0.1364
B(  2-C ,  7-H ) :  -0.1890 B(  2-C ,  8-H ) :  -0.1269 B(  2-C ,  9-H ) :  -0.1591
B(  3-N ,  4-N ) :   0.1724 B(  3-N ,  8-H ) :   1.1317 B(  3-N ,  9-H ) :   1.2645
B(  4-N ,  5-H ) :   1.1145 B(  4-N ,  6-H ) :   1.2305 B(  5-H ,  6-H ) :  -0.1795
B(  8-H ,  9-H ) :  -0.1656

Dispersion correction           -0.007594577
FINAL SINGLE POINT ENERGY      -244.646131874969

DIPOLE MOMENT
-------------
                                X             Y             Z
Electronic contribution:      2.05134      -0.55617      -1.80576
Nuclear contribution   :     -1.59972       0.59064       1.48941
                        -----------------------------------------
Total Dipole Moment    :      0.45161       0.03447      -0.31635
                        -----------------------------------------
Magnitude (a.u.)       :      0.55246
Magnitude (Debye)      :      1.40425

Rotational constants in cm-1:     0.309236     0.134358     0.096189
Rotational constants in MHz :  9270.657746  4027.948155  2883.671905

                             ****ORCA TERMINATED NORMALLY****
TOTAL RUN TIME: 0 days 0 hours 0 minutes 8 seconds 541 msec
