                         Program Version 5.0.0 -  RELEASE  -
|  1> !PBE0 D3BJ RIJCOSX def2-SVPD def2/J TightSCF
|  2> *xyz 0 1
|  3> C          1.69499        1.54179       -5.57045
|  4> S          1.78029       -0.03313       -6.42874
|  5> F          2.56929        0.21366       -7.60736
|  6> O          0.41688       -0.46297       -6.61859
|  7> O          2.50513       -0.93326       -5.48257
|  8> H          1.18489        2.25500       -6.18367
|  9> H          2.68564        1.89081       -5.36624
| 10> H          1.16361        1.41804       -4.65000
| 11> *
| 12> %MaxCore 64000
| 13>
| 14> %pal nprocs 8
| 15> end
| 16>
| 17> %scf
| 18>   MaxIter 150
| 19> end
| 20>
| 21>
| 22>                          ****END OF INPUT****

CARTESIAN COORDINATES (ANGSTROEM)
---------------------------------
  C      1.694990    1.541790   -5.570450
  S      1.780290   -0.033130   -6.428740
  F      2.569290    0.213660   -7.607360
  O      0.416880   -0.462970   -6.618590
  O      2.505130   -0.933260   -5.482570
  H      1.184890    2.255000   -6.183670
  H      2.685640    1.890810   -5.366240
  H      1.163610    1.418040   -4.650000

 Total Charge           Charge          ....    0
 Multiplicity           Mult            ....    1
 Number of Electrons    NEL             ....   50
 Basis Dimension        Dim             ....  140

ORBITAL ENERGIES
----------------

  NO   OCC          E(Eh)            E(eV)
   0   2.0000     -89.305049     -2430.1139
   1   2.0000     -24.909929      -677.8336
   2   2.0000     -19.238574      -523.5082
   3   2.0000     -19.219798      -522.9973
   4   2.0000     -10.295756      -280.1618
   5   2.0000      -8.265109      -224.9051
   6   2.0000      -6.211420      -169.0213
   7   2.0000      -6.204895      -168.8438
   8   2.0000      -6.203946      -168.8179
   9   2.0000      -1.417577       -38.5742
  10   2.0000      -1.140227       -31.0272
  11   2.0000      -1.030128       -28.0312
  12   2.0000      -0.826427       -22.4882
  13   2.0000      -0.745848       -20.2955
  14   2.0000      -0.629941       -17.1416
  15   2.0000      -0.615786       -16.7564
  16   2.0000      -0.580007       -15.7828
  17   2.0000      -0.498052       -13.5527
  18   2.0000      -0.497257       -13.5310
  19   2.0000      -0.485172       -13.2022
  20   2.0000      -0.457696       -12.4545
  21   2.0000      -0.406138       -11.0516
  22   2.0000      -0.359098        -9.7716
  23   2.0000      -0.340975        -9.2784
  24   2.0000      -0.322744        -8.7823
  25   0.0000      -0.003776        -0.1028
  26   0.0000       0.037286         1.0146
  27   0.0000       0.038694         1.0529
  28   0.0000       0.049940         1.3589
  29   0.0000       0.051554         1.4029

MULLIKEN ATOMIC CHARGES
-----------------------
   0 C :    0.287807
   1 S :    1.331121
   2 F :   -0.386879
   3 O :   -0.649387
   4 O :   -0.699382
   5 H :    0.041292
   6 H :    0.045080
   7 H :    0.030349
Sum of atomic charges:   -0.0000000

LOEWDIN ATOMIC CHARGES
----------------------
   0 C :    0.118643
   1 S :    1.113785
   2 F :   -0.258063
   3 O :   -0.464199
   4 O :   -0.491926
   5 H :   -0.012048
   6 H :   -0.009778
   7 H :    0.003586

  Mayer bond orders larger than 0.100000
B(  0-C ,  1-S ) :   1.0147 B(  0-C ,  5-H ) :   0.9230 B(  0-C ,  6-H ) :   0.9252
B(  0-C ,  7-H ) :   0.9317 B(  1-S ,  2-F ) :   0.6818 B(  1-S ,  3-O ) :   1.5215
B(  1-S ,  4-O ) :   1.4834 B(  1-S ,  7-H ) :   0.1066

Dispersion correction           -0.005005915
FINAL SINGLE POINT ENERGY      -687.545953767792

DIPOLE MOMENT
-------------
                                X             Y             Z
Electronic contribution:      1.39833      -3.21605      -4.14288
Nuclear contribution   :     -1.09446       4.91008       3.93848
                        -----------------------------------------
Total Dipole Moment    :      0.30387       1.69403      -0.20440
                        -----------------------------------------
Magnitude (a.u.)       :      1.73316
Magnitude (Debye)      :      4.40535

Rotational constants in cm-1:     0.163326     0.155515     0.146672
Rotational constants in MHz :  4896.387829  4662.220576  4397.127261

                             ****ORCA TERMINATED NORMALLY****
TOTAL RUN TIME: 0 days 0 hours 0 minutes 7 seconds 615 msec
