                         Program Version 5.0.0 -  RELEASE  -
|  1> !PBE0 D3BJ RIJCOSX def2-SVPD def2/J TightSCF
|  2> *xyz 0 1
|  3> C          1.96337       -1.74915       -1.89689
|  4> C          2.73849       -2.01517       -3.09711
|  5> C          4.04974       -2.15472       -3.15204
|  6> N          4.65821       -1.98629       -4.31866
|  7> N          4.76423       -2.45444       -2.05049
|  8> H          4.28736       -2.77626       -1.21750
|  9> H          5.75082       -2.65835       -2.12599
| 10> H          2.34518       -1.69027       -3.97145
| 11> H          4.10900       -1.59268       -5.07176
| 12> H          5.64910       -2.15646       -4.42724
| 13> H          0.92556       -1.68522       -2.14942
| 14> H          2.28268       -0.82430       -1.46378
| 15> H          2.11118       -2.54207       -1.19381
| 16> *
| 17> %MaxCore 64000
| 18>
| 19> %pal nprocs 8
| 20> end
| 21>
| 22> %scf
| 23>   MaxIter 150
| 24> end
| 25>
| 26>
| 27>                          ****END OF INPUT****

CARTESIAN COORDINATES (ANGSTROEM)
---------------------------------
  C      1.963370   -1.749150   -1.896890
  C      2.738490   -2.015170   -3.097110
  C      4.049740   -2.154720   -3.152040
  N      4.658210   -1.986290   -4.318660
  N      4.764230   -2.454440   -2.050490
  H      4.287360   -2.776260   -1.217500
  H      5.750820   -2.658350   -2.125990
  H      2.345180   -1.690270   -3.971450
  H      4.109000   -1.592680   -5.071760
  H      5.649100   -2.156460   -4.427240
  H      0.925560   -1.685220   -2.149420
  H      2.282680   -0.824300   -1.463780
  H      2.111180   -2.542070   -1.193810

 Total Charge           Charge          ....    0
 Multiplicity           Mult            ....    1
 Number of Electrons    NEL             ....   40
 Basis Dimension        Dim             ....  164

ORBITAL ENERGIES
----------------

  NO   OCC          E(Eh)            E(eV)
   0   2.0000     -14.398001      -391.7895
   1   2.0000     -14.393873      -391.6772
   2   2.0000     -10.272296      -279.5234
   3   2.0000     -10.195294      -277.4281
   4   2.0000     -10.152617      -276.2668
   5   2.0000      -0.977599       -26.6018
   6   2.0000      -0.886563       -24.1246
   7   2.0000      -0.769459       -20.9380
   8   2.0000      -0.672078       -18.2882
   9   2.0000      -0.601082       -16.3563
  10   2.0000      -0.558046       -15.1852
  11   2.0000      -0.523917       -14.2565
  12   2.0000      -0.487672       -13.2702
  13   2.0000      -0.437890       -11.9156
  14   2.0000      -0.424005       -11.5378
  15   2.0000      -0.391443       -10.6517
  16   2.0000      -0.370806       -10.0901
  17   2.0000      -0.348211        -9.4753
  18   2.0000      -0.277721        -7.5572
  19   2.0000      -0.167563        -4.5596
  20   0.0000       0.021915         0.5963
  21   0.0000       0.050250         1.3674
  22   0.0000       0.062625         1.7041
  23   0.0000       0.078485         2.1357
  24   0.0000       0.089434         2.4336

MULLIKEN ATOMIC CHARGES
-----------------------
   0 C :    0.704367
   1 C :   -0.670338
   2 C :    1.030509
   3 N :   -0.142992
   4 N :   -0.181568
   5 H :   -0.033447
   6 H :   -0.230714
   7 H :   -0.226882
   8 H :    0.011357
   9 H :   -0.166967
  10 H :   -0.026158
  11 H :   -0.055880
  12 H :   -0.011287
Sum of atomic charges:   -0.0000000

LOEWDIN ATOMIC CHARGES
----------------------
   0 C :    0.081747
   1 C :   -0.079269
   2 C :   -0.225692
   3 N :    0.168838
   4 N :    0.194382
   5 H :   -0.005992
   6 H :   -0.011654
   7 H :   -0.055556
   8 H :    0.006589
   9 H :   -0.006369
  10 H :   -0.017479
  11 H :   -0.018003
  12 H :   -0.031543

  Mayer bond orders larger than 0.100000
B(  0-C ,  1-C ) :   1.1895 B(  0-C ,  7-H ) :   0.1711 B(  0-C , 10-H ) :   0.7833
B(  0-C , 11-H ) :   0.8035 B(  0-C , 12-H ) :   0.7497 B(  1-C ,  2-C ) :   1.6596
B(  1-C ,  3-N ) :   0.3033 B(  1-C ,  4-N ) :   0.2483 B(  1-C ,  7-H ) :   1.0018
B(  1-C , 10-H ) :   0.2424 B(  1-C , 11-H ) :   0.1201 B(  1-C , 12-H ) :   0.2497
B(  2-C ,  3-N ) :   0.8074 B(  2-C ,  4-N ) :   0.7929 B(  2-C ,  6-H ) :  -0.1893
B(  2-C ,  7-H ) :   0.1887 B(  2-C ,  9-H ) :  -0.1145 B(  3-N ,  4-N ) :   0.1153
B(  3-N ,  8-H ) :   1.1309 B(  3-N ,  9-H ) :   1.2784 B(  4-N ,  5-H ) :   1.0799
B(  4-N ,  6-H ) :   1.3503 B(  5-H ,  6-H ) :  -0.1774 B(  8-H ,  9-H ) :  -0.1601
B( 10-H , 12-H ) :   0.1011

Dispersion correction           -0.007947660
FINAL SINGLE POINT ENERGY      -228.188468616885

DIPOLE MOMENT
-------------
                                X             Y             Z
Electronic contribution:      2.74009      -0.66319      -1.58923
Nuclear contribution   :     -1.78367       0.60166       1.44982
                        -----------------------------------------
Total Dipole Moment    :      0.95643      -0.06154      -0.13941
                        -----------------------------------------
Magnitude (a.u.)       :      0.96849
Magnitude (Debye)      :      2.46171

Rotational constants in cm-1:     0.313991     0.135452     0.097139
Rotational constants in MHz :  9413.212964  4060.745953  2912.144668

                             ****ORCA TERMINATED NORMALLY****
TOTAL RUN TIME: 0 days 0 hours 0 minutes 9 seconds 442 msec
