                         Program Version 5.0.0 -  RELEASE  -
|  1> !PBE0 D3BJ RIJCOSX def2-SVPD def2/J TightSCF
|  2> *xyz 0 1
|  3> C          1.69499        1.54179       -5.57045
|  4> S          1.78029       -0.03313       -6.42874
|  5> O          2.56929        0.21366       -7.60736
|  6> F          0.41688       -0.46297       -6.61859
|  7> O          2.50513       -0.93326       -5.48257
|  8> H          1.18489        2.25500       -6.18367
|  9> H          2.68564        1.89081       -5.36624
| 10> H          1.16361        1.41804       -4.65000
| 11> *
| 12> %MaxCore 64000
| 13>
| 14> %pal nprocs 8
| 15> end
| 16>
| 17> %scf
| 18>   MaxIter 150
| 19> end
| 20>
| 21>
| 22>                          ****END OF INPUT****

CARTESIAN COORDINATES (ANGSTROEM)
---------------------------------
  C      1.694990    1.541790   -5.570450
  S      1.780290   -0.033130   -6.428740
  O      2.569290    0.213660   -7.607360
  F      0.416880   -0.462970   -6.618590
  O      2.505130   -0.933260   -5.482570
  H      1.184890    2.255000   -6.183670
  H      2.685640    1.890810   -5.366240
  H      1.163610    1.418040   -4.650000

 Total Charge           Charge          ....    0
 Multiplicity           Mult            ....    1
 Number of Electrons    NEL             ....   50
 Basis Dimension        Dim             ....  140

ORBITAL ENERGIES
----------------

  NO   OCC          E(Eh)            E(eV)
   0   2.0000     -89.304783     -2430.1067
   1   2.0000     -24.910255      -677.8425
   2   2.0000     -19.237440      -523.4773
   3   2.0000     -19.219840      -522.9984
   4   2.0000     -10.295794      -280.1628
   5   2.0000      -8.264887      -224.8990
   6   2.0000      -6.211165      -169.0144
   7   2.0000      -6.204680      -168.8379
   8   2.0000      -6.203731      -168.8121
   9   2.0000      -1.416411       -38.5425
  10   2.0000      -1.141242       -31.0548
  11   2.0000      -1.029809       -28.0225
  12   2.0000      -0.825991       -22.4764
  13   2.0000      -0.745911       -20.2973
  14   2.0000      -0.629536       -17.1306
  15   2.0000      -0.615223       -16.7411
  16   2.0000      -0.579640       -15.7728
  17   2.0000      -0.498180       -13.5562
  18   2.0000      -0.497075       -13.5261
  19   2.0000      -0.485707       -13.2168
  20   2.0000      -0.457542       -12.4503
  21   2.0000      -0.406370       -11.0579
  22   2.0000      -0.358372        -9.7518
  23   2.0000      -0.340937        -9.2774
  24   2.0000      -0.322215        -8.7679
  25   0.0000      -0.004508        -0.1227
  26   0.0000       0.037223         1.0129
  27   0.0000       0.037283         1.0145
  28   0.0000       0.049787         1.3548
  29   0.0000       0.051550         1.4027

MULLIKEN ATOMIC CHARGES
-----------------------
   0 C :    0.289003
   1 S :    1.330073
   2 O :   -0.647672
   3 F :   -0.389566
   4 O :   -0.698512
   5 H :    0.041240
   6 H :    0.034337
   7 H :    0.041098
Sum of atomic charges:    0.0000000

LOEWDIN ATOMIC CHARGES
----------------------
   0 C :    0.118793
   1 S :    1.114017
   2 O :   -0.465180
   3 F :   -0.257681
   4 O :   -0.491646
   5 H :   -0.012056
   6 H :    0.003957
   7 H :   -0.010205

  Mayer bond orders larger than 0.100000
B(  0-C ,  1-S ) :   1.0147 B(  0-C ,  5-H ) :   0.9227 B(  0-C ,  6-H ) :   0.9290
B(  0-C ,  7-H ) :   0.9279 B(  1-S ,  2-O ) :   1.5245 B(  1-S ,  3-F ) :   0.6778
B(  1-S ,  4-O ) :   1.4826 B(  1-S ,  6-H ) :   0.1067

Dispersion correction           -0.005006603
FINAL SINGLE POINT ENERGY      -687.545224123632

DIPOLE MOMENT
-------------
                                X             Y             Z
Electronic contribution:     -2.16731      -4.33677      -2.50143
Nuclear contribution   :      1.05593       5.58608       2.95063
                        -----------------------------------------
Total Dipole Moment    :     -1.11138       1.24931       0.44920
                        -----------------------------------------
Magnitude (a.u.)       :      1.73139
Magnitude (Debye)      :      4.40084

Rotational constants in cm-1:     0.163930     0.155251     0.146268
Rotational constants in MHz :  4914.487830  4654.318941  4385.000376

                             ****ORCA TERMINATED NORMALLY****
TOTAL RUN TIME: 0 days 0 hours 0 minutes 7 seconds 722 msec
