                         Program Version 5.0.0 -  RELEASE  -
|  1> !PBE0 D3BJ RIJCOSX def2-SVPD def2/J TightSCF
|  2> *xyz 0 1
|  3> C          1.96337       -1.74915       -1.89689
|  4> N          2.73849       -2.01517       -3.09711
|  5> C          4.04974       -2.15472       -3.15204
|  6> C          4.65821       -1.98629       -4.31866
|  7> N          4.76423       -2.45444       -2.05049
|  8> H          4.28736       -2.77626       -1.21750
|  9> H          5.75082       -2.65835       -2.12599
| 10> H          2.34518       -1.69027       -3.97145
| 11> H          4.10900       -1.59268       -5.07176
| 12> H          5.64910       -2.15646       -4.42724
| 13> H          0.92556       -1.68522       -2.14942
| 14> H          2.28268       -0.82430       -1.46378
| 15> H          2.11118       -2.54207       -1.19381
| 16> *
| 17> %MaxCore 64000
| 18>
| 19> %pal nprocs 8
| 20> end
| 21>
| 22> %scf
| 23>   MaxIter 150
| 24> end
| 25>
| 26>
| 27>                          ****END OF INPUT****

CARTESIAN COORDINATES (ANGSTROEM)
---------------------------------
  C      1.963370   -1.749150   -1.896890
  N      2.738490   -2.015170   -3.097110
  C      4.049740   -2.154720   -3.152040
  C      4.658210   -1.986290   -4.318660
  N      4.764230   -2.454440   -2.050490
  H      4.287360   -2.776260   -1.217500
  H      5.750820   -2.658350   -2.125990
  H      2.345180   -1.690270   -3.971450
  H      4.109000   -1.592680   -5.071760
  H      5.649100   -2.156460   -4.427240
  H      0.925560   -1.685220   -2.149420
  H      2.282680   -0.824300   -1.463780
  H      2.111180   -2.542070   -1.193810

 Total Charge           Charge          ....    0
 Multiplicity           Mult            ....    1
 Number of Electrons    NEL             ....   40
 Basis Dimension        Dim             ....  164

ORBITAL ENERGIES
----------------

  NO   OCC          E(Eh)            E(eV)
   0   2.0000     -14.397521      -391.7765
   1   2.0000     -14.396614      -391.7518
   2   2.0000     -10.276236      -279.6306
   3   2.0000     -10.263636      -279.2877
   4   2.0000     -10.144179      -276.0371
   5   2.0000      -0.987284       -26.8654
   6   2.0000      -0.899228       -24.4692
   7   2.0000      -0.762280       -20.7427
   8   2.0000      -0.681870       -18.5546
   9   2.0000      -0.616478       -16.7752
  10   2.0000      -0.550556       -14.9814
  11   2.0000      -0.508972       -13.8498
  12   2.0000      -0.491175       -13.3656
  13   2.0000      -0.469835       -12.7849
  14   2.0000      -0.417361       -11.3570
  15   2.0000      -0.404542       -11.0081
  16   2.0000      -0.399455       -10.8697
  17   2.0000      -0.374384       -10.1875
  18   2.0000      -0.268334        -7.3017
  19   2.0000      -0.172878        -4.7042
  20   0.0000       0.019731         0.5369
  21   0.0000       0.054629         1.4865
  22   0.0000       0.056513         1.5378
  23   0.0000       0.076480         2.0811
  24   0.0000       0.090959         2.4751

MULLIKEN ATOMIC CHARGES
-----------------------
   0 C :    0.958732
   1 N :   -0.625969
   2 C :    0.805951
   3 C :    0.223324
   4 N :   -0.067032
   5 H :   -0.124008
   6 H :   -0.105772
   7 H :   -0.182191
   8 H :   -0.185875
   9 H :   -0.333136
  10 H :   -0.237921
  11 H :   -0.032310
  12 H :   -0.093793
Sum of atomic charges:    0.0000000

LOEWDIN ATOMIC CHARGES
----------------------
   0 C :    0.200288
   1 N :   -0.057764
   2 C :   -0.239656
   3 C :    0.136842
   4 N :    0.191506
   5 H :   -0.020519
   6 H :    0.006088
   7 H :    0.027967
   8 H :   -0.099234
   9 H :   -0.097707
  10 H :   -0.009803
  11 H :   -0.014789
  12 H :   -0.023219

  Mayer bond orders larger than 0.100000
B(  0-C ,  1-N ) :   0.8961 B(  0-C , 10-H ) :   0.8491 B(  0-C , 11-H ) :   0.8567
B(  0-C , 12-H ) :   0.8548 B(  1-N ,  2-C ) :   1.0021 B(  1-N ,  3-C ) :   0.2307
B(  1-N ,  4-N ) :   0.1636 B(  1-N ,  7-H ) :   1.2158 B(  1-N , 10-H ) :   0.1642
B(  1-N , 11-H ) :   0.1243 B(  1-N , 12-H ) :   0.1682 B(  2-C ,  3-C ) :   1.4680
B(  2-C ,  4-N ) :   0.8750 B(  2-C ,  7-H ) :  -0.1333 B(  2-C ,  9-H ) :   0.1179
B(  3-C ,  4-N ) :   0.1965 B(  3-C ,  8-H ) :   0.9003 B(  3-C ,  9-H ) :   0.8944
B(  4-N ,  5-H ) :   1.1217 B(  4-N ,  6-H ) :   1.2045 B(  5-H ,  6-H ) :  -0.1780

Dispersion correction           -0.007901653
FINAL SINGLE POINT ENERGY      -228.179867136638

DIPOLE MOMENT
-------------
                                X             Y             Z
Electronic contribution:      0.86897      -0.64652      -0.33079
Nuclear contribution   :     -1.39484       0.60751       1.20240
                        -----------------------------------------
Total Dipole Moment    :     -0.52587      -0.03901       0.87161
                        -----------------------------------------
Magnitude (a.u.)       :      1.01871
Magnitude (Debye)      :      2.58935

Rotational constants in cm-1:     0.316419     0.139940     0.099730
Rotational constants in MHz :  9485.991536  4195.289338  2989.818216

                             ****ORCA TERMINATED NORMALLY****
TOTAL RUN TIME: 0 days 0 hours 0 minutes 9 seconds 677 msec
