                         Program Version 5.0.0 -  RELEASE  -
|  1> !PBE0 D3BJ RIJCOSX def2-SVPD def2/J TightSCF
|  2> *xyz 0 1
|  3> C          1.69499        1.54179       -5.57045
|  4> S          1.78029       -0.03313       -6.42874
|  5> O          2.56929        0.21366       -7.60736
|  6> O          0.41688       -0.46297       -6.61859
|  7> F          2.50513       -0.93326       -5.48257
|  8> H          1.18489        2.25500       -6.18367
|  9> H          2.68564        1.89081       -5.36624
| 10> H          1.16361        1.41804       -4.65000
| 11> *
| 12> %MaxCore 64000
| 13>
| 14> %pal nprocs 8
| 15> end
| 16>
| 17> %scf
| 18>   MaxIter 150
| 19> end
| 20>
| 21>
| 22>                          ****END OF INPUT****

CARTESIAN COORDINATES (ANGSTROEM)
---------------------------------
  C      1.694990    1.541790   -5.570450
  S      1.780290   -0.033130   -6.428740
  O      2.569290    0.213660   -7.607360
  O      0.416880   -0.462970   -6.618590
  F      2.505130   -0.933260   -5.482570
  H      1.184890    2.255000   -6.183670
  H      2.685640    1.890810   -5.366240
  H      1.163610    1.418040   -4.650000

 Total Charge           Charge          ....    0
 Multiplicity           Mult            ....    1
 Number of Electrons    NEL             ....   50
 Basis Dimension        Dim             ....  140

ORBITAL ENERGIES
----------------

  NO   OCC          E(Eh)            E(eV)
   0   2.0000     -89.302262     -2430.0381
   1   2.0000     -24.883500      -677.1145
   2   2.0000     -19.237935      -523.4908
   3   2.0000     -19.236781      -523.4594
   4   2.0000     -10.294441      -280.1260
   5   2.0000      -8.262246      -224.8271
   6   2.0000      -6.208213      -168.9341
   7   2.0000      -6.202336      -168.7741
   8   2.0000      -6.201387      -168.7483
   9   2.0000      -1.372226       -37.3402
  10   2.0000      -1.152418       -31.3589
  11   2.0000      -1.058031       -28.7905
  12   2.0000      -0.822830       -22.3904
  13   2.0000      -0.723215       -19.6797
  14   2.0000      -0.609389       -16.5823
  15   2.0000      -0.584598       -15.9077
  16   2.0000      -0.574702       -15.6384
  17   2.0000      -0.499999       -13.6057
  18   2.0000      -0.497636       -13.5414
  19   2.0000      -0.483018       -13.1436
  20   2.0000      -0.465314       -12.6619
  21   2.0000      -0.413260       -11.2454
  22   2.0000      -0.363884        -9.9018
  23   2.0000      -0.358932        -9.7670
  24   2.0000      -0.342612        -9.3230
  25   0.0000      -0.000404        -0.0110
  26   0.0000       0.036276         0.9871
  27   0.0000       0.039898         1.0857
  28   0.0000       0.051471         1.4006
  29   0.0000       0.051946         1.4135

MULLIKEN ATOMIC CHARGES
-----------------------
   0 C :    0.285548
   1 S :    1.344696
   2 O :   -0.664414
   3 O :   -0.665483
   4 F :   -0.414122
   5 H :    0.029826
   6 H :    0.044157
   7 H :    0.039792
Sum of atomic charges:   -0.0000000

LOEWDIN ATOMIC CHARGES
----------------------
   0 C :    0.119169
   1 S :    1.110590
   2 O :   -0.466064
   3 O :   -0.464902
   4 F :   -0.280414
   5 H :    0.001884
   6 H :   -0.009842
   7 H :   -0.010420

  Mayer bond orders larger than 0.100000
B(  0-C ,  1-S ) :   1.0145 B(  0-C ,  5-H ) :   0.9260 B(  0-C ,  6-H ) :   0.9268
B(  0-C ,  7-H ) :   0.9296 B(  1-S ,  2-O ) :   1.5199 B(  1-S ,  3-O ) :   1.5165
B(  1-S ,  4-F ) :   0.6241

Dispersion correction           -0.005006503
FINAL SINGLE POINT ENERGY      -687.568709938933

DIPOLE MOMENT
-------------
                                X             Y             Z
Electronic contribution:      1.30924      -5.13539      -0.59108
Nuclear contribution   :     -1.03036       6.05593       1.81567
                        -----------------------------------------
Total Dipole Moment    :      0.27888       0.92054       1.22459
                        -----------------------------------------
Magnitude (a.u.)       :      1.55717
Magnitude (Debye)      :      3.95801

Rotational constants in cm-1:     0.164224     0.152173     0.148737
Rotational constants in MHz :  4923.310232  4562.031098  4459.033187

                             ****ORCA TERMINATED NORMALLY****
TOTAL RUN TIME: 0 days 0 hours 0 minutes 7 seconds 63 msec
