                         Program Version 5.0.0 -  RELEASE  -
|  1> !PBE0 D3BJ RIJCOSX def2-SVPD def2/J TightSCF
|  2> *xyz 0 1
|  3> C          1.96337       -1.74915       -1.89689
|  4> N          2.73849       -2.01517       -3.09711
|  5> C          4.04974       -2.15472       -3.15204
|  6> N          4.65821       -1.98629       -4.31866
|  7> C          4.76423       -2.45444       -2.05049
|  8> H          4.28736       -2.77626       -1.21750
|  9> H          5.75082       -2.65835       -2.12599
| 10> H          2.34518       -1.69027       -3.97145
| 11> H          4.10900       -1.59268       -5.07176
| 12> H          5.64910       -2.15646       -4.42724
| 13> H          0.92556       -1.68522       -2.14942
| 14> H          2.28268       -0.82430       -1.46378
| 15> H          2.11118       -2.54207       -1.19381
| 16> *
| 17> %MaxCore 64000
| 18>
| 19> %pal nprocs 8
| 20> end
| 21>
| 22> %scf
| 23>   MaxIter 150
| 24> end
| 25>
| 26>
| 27>                          ****END OF INPUT****

CARTESIAN COORDINATES (ANGSTROEM)
---------------------------------
  C      1.963370   -1.749150   -1.896890
  N      2.738490   -2.015170   -3.097110
  C      4.049740   -2.154720   -3.152040
  N      4.658210   -1.986290   -4.318660
  C      4.764230   -2.454440   -2.050490
  H      4.287360   -2.776260   -1.217500
  H      5.750820   -2.658350   -2.125990
  H      2.345180   -1.690270   -3.971450
  H      4.109000   -1.592680   -5.071760
  H      5.649100   -2.156460   -4.427240
  H      0.925560   -1.685220   -2.149420
  H      2.282680   -0.824300   -1.463780
  H      2.111180   -2.542070   -1.193810

 Total Charge           Charge          ....    0
 Multiplicity           Mult            ....    1
 Number of Electrons    NEL             ....   40
 Basis Dimension        Dim             ....  164

ORBITAL ENERGIES
----------------

  NO   OCC          E(Eh)            E(eV)
   0   2.0000     -14.402442      -391.9104
   1   2.0000     -14.398047      -391.7908
   2   2.0000     -10.277682      -279.6699
   3   2.0000     -10.257136      -279.1109
   4   2.0000     -10.145930      -276.0848
   5   2.0000      -0.993361       -27.0307
   6   2.0000      -0.902871       -24.5684
   7   2.0000      -0.736852       -20.0508
   8   2.0000      -0.712038       -19.3755
   9   2.0000      -0.584731       -15.9113
  10   2.0000      -0.563733       -15.3399
  11   2.0000      -0.540644       -14.7117
  12   2.0000      -0.467922       -12.7328
  13   2.0000      -0.463724       -12.6186
  14   2.0000      -0.429722       -11.6933
  15   2.0000      -0.396308       -10.7841
  16   2.0000      -0.385901       -10.5009
  17   2.0000      -0.379181       -10.3181
  18   2.0000      -0.264308        -7.1922
  19   2.0000      -0.176170        -4.7938
  20   0.0000       0.020124         0.5476
  21   0.0000       0.045635         1.2418
  22   0.0000       0.059874         1.6293
  23   0.0000       0.079193         2.1550
  24   0.0000       0.093664         2.5487

MULLIKEN ATOMIC CHARGES
-----------------------
   0 C :    0.970976
   1 N :   -0.596013
   2 C :    0.762031
   3 N :   -0.089614
   4 C :    0.252134
   5 H :   -0.057221
   6 H :   -0.486061
   7 H :   -0.300662
   8 H :   -0.100334
   9 H :   -0.087369
  10 H :   -0.258464
  11 H :   -0.047748
  12 H :    0.038344
Sum of atomic charges:    0.0000000

LOEWDIN ATOMIC CHARGES
----------------------
   0 C :    0.208419
   1 N :   -0.060636
   2 C :   -0.245807
   3 N :    0.175991
   4 C :    0.156044
   5 H :   -0.111753
   6 H :   -0.105031
   7 H :    0.013807
   8 H :   -0.008588
   9 H :    0.013015
  10 H :   -0.011115
  11 H :   -0.009527
  12 H :   -0.014820

  Mayer bond orders larger than 0.100000
B(  0-C ,  1-N ) :   0.8825 B(  0-C ,  7-H ) :  -0.1070 B(  0-C , 10-H ) :   0.8706
B(  0-C , 11-H ) :   0.8521 B(  0-C , 12-H ) :   0.8453 B(  1-N ,  2-C ) :   0.9208
B(  1-N ,  3-N ) :   0.1758 B(  1-N ,  4-C ) :   0.3191 B(  1-N ,  7-H ) :   1.3139
B(  1-N , 10-H ) :   0.1565 B(  1-N , 11-H ) :   0.1522 B(  2-C ,  3-N ) :   0.8184
B(  2-C ,  4-C ) :   1.6998 B(  2-C ,  5-H ) :   0.1998 B(  2-C ,  6-H ) :   0.1221
B(  2-C ,  7-H ) :  -0.1711 B(  2-C ,  9-H ) :  -0.1013 B(  3-N ,  4-C ) :   0.2195
B(  3-N ,  8-H ) :   1.1657 B(  3-N ,  9-H ) :   1.2461 B(  4-C ,  5-H ) :   0.7391
B(  4-C ,  6-H ) :   0.9909 B(  8-H ,  9-H ) :  -0.1564

Dispersion correction           -0.007935200
FINAL SINGLE POINT ENERGY      -228.180613484245

DIPOLE MOMENT
-------------
                                X             Y             Z
Electronic contribution:      0.79210      -0.13188      -2.55036
Nuclear contribution   :     -1.37336       0.51269       1.66180
                        -----------------------------------------
Total Dipole Moment    :     -0.58127       0.38081      -0.88856
                        -----------------------------------------
Magnitude (a.u.)       :      1.12802
Magnitude (Debye)      :      2.86719

Rotational constants in cm-1:     0.331915     0.135033     0.098638
Rotational constants in MHz :  9950.555862  4048.179255  2957.099162

                             ****ORCA TERMINATED NORMALLY****
TOTAL RUN TIME: 0 days 0 hours 0 minutes 9 seconds 218 msec
