                         Program Version 5.0.0 -  RELEASE  -
|  1> !PBE0 D3BJ RIJCOSX def2-SVPD def2/J TightSCF xyzfile
|  2>
|  3> *xyzfile 0 1 D3.xyz
|  4>
|  5> %MaxCore 64000
|  6>
|  7> %pal nprocs 4
|  8> end
|  9>
| 10> %scf
| 11>   MaxIter 150
| 12> end
| 13>
| 14>
| 15>                          ****END OF INPUT****

CARTESIAN COORDINATES (ANGSTROEM)
---------------------------------
  C      1.963365   -1.749150   -1.896887
  N      2.738490   -2.015170   -3.097113
  C      0.611877    1.657634   -4.500288
  C      1.694991    1.541794   -5.570447
  H      2.697326    1.734659   -5.183996
  H      1.506656    2.272239   -6.358076
  S      1.780287   -0.033128   -6.428739
  C      4.049736   -2.154717   -3.152044
  N      4.658206   -1.986293   -4.318655
  C      4.764231   -2.454435   -2.050491
  H      4.287363   -2.776259   -1.217496
  H      5.750825   -2.658351   -2.125988
  H      2.345176   -1.690274   -3.971447
  H      4.109004   -1.592677   -5.071760
  H      5.649095   -2.156462   -4.427237
  F      2.569287    0.213657   -7.607360
  O      0.416880   -0.462969   -6.618595
  C      2.088520   -0.300912   -1.415204
  H      2.231272   -2.451616   -1.102643
  H      0.930249   -1.977801   -2.155438
  C      0.680356    0.655418   -3.348038
  H     -0.356865    1.549231   -4.991128
  H      0.650228    2.675438   -4.096000
  C      1.968993    0.733582   -2.535654
  H      3.051356   -0.168602   -0.911868
  H      1.316501   -0.136231   -0.657252
  O      2.505129   -0.933263   -5.482570
  H      2.824195    0.624726   -3.208464
  H      2.058919    1.730331   -2.093112
  H      0.542252   -0.344731   -3.766662
  H     -0.174219    0.829692   -2.685182

 Total Charge           Charge          ....    0
 Multiplicity           Mult            ....    1
 Number of Electrons    NEL             ....  120
 Basis Dimension        Dim             ....  432

ORBITAL ENERGIES
----------------

  NO   OCC          E(Eh)            E(eV)
   0   2.0000     -89.327244     -2430.7179
   1   2.0000     -24.930654      -678.3976
   2   2.0000     -19.259696      -524.0830
   3   2.0000     -19.251820      -523.8687
   4   2.0000     -14.365550      -390.9065
   5   2.0000     -14.364453      -390.8766
   6   2.0000     -10.314479      -280.6712
   7   2.0000     -10.274009      -279.5700
   8   2.0000     -10.253979      -279.0250
   9   2.0000     -10.249403      -278.9004
  10   2.0000     -10.244812      -278.7755
  11   2.0000     -10.232483      -278.4400
  12   2.0000     -10.220688      -278.1191
  13   2.0000     -10.122773      -275.4547
  14   2.0000      -8.286428      -225.4852
  15   2.0000      -6.232632      -169.5985
  16   2.0000      -6.226754      -169.4386
  17   2.0000      -6.224924      -169.3888
  18   2.0000      -1.437087       -39.1051
  19   2.0000      -1.165179       -31.7061
  20   2.0000      -1.062741       -28.9187
  21   2.0000      -0.966250       -26.2930
  22   2.0000      -0.880609       -23.9626
  23   2.0000      -0.870929       -23.6992
  24   2.0000      -0.817215       -22.2375
  25   2.0000      -0.782323       -21.2881
  26   2.0000      -0.745241       -20.2790
  27   2.0000      -0.706688       -19.2300
  28   2.0000      -0.696375       -18.9493
  29   2.0000      -0.658018       -17.9056
  30   2.0000      -0.638375       -17.3711
  31   2.0000      -0.623960       -16.9788
  32   2.0000      -0.609582       -16.5876
  33   2.0000      -0.587319       -15.9818
  34   2.0000      -0.556461       -15.1421
  35   2.0000      -0.541736       -14.7414
  36   2.0000      -0.534104       -14.5337
  37   2.0000      -0.524984       -14.2855
  38   2.0000      -0.513609       -13.9760
  39   2.0000      -0.497719       -13.5436
  40   2.0000      -0.480392       -13.0721
  41   2.0000      -0.472259       -12.8508
  42   2.0000      -0.456439       -12.4203
  43   2.0000      -0.441887       -12.0244
  44   2.0000      -0.436647       -11.8818
  45   2.0000      -0.431901       -11.7526
  46   2.0000      -0.405662       -11.0386
  47   2.0000      -0.400351       -10.8941
  48   2.0000      -0.385799       -10.4981
  49   2.0000      -0.381976       -10.3941
  50   2.0000      -0.377575       -10.2743
  51   2.0000      -0.365801        -9.9539
  52   2.0000      -0.363319        -9.8864
  53   2.0000      -0.355805        -9.6820
  54   2.0000      -0.349808        -9.5188
  55   2.0000      -0.342275        -9.3138
  56   2.0000      -0.339718        -9.2442
  57   2.0000      -0.327747        -8.9185
  58   2.0000      -0.237135        -6.4528
  59   2.0000      -0.152247        -4.1429
  60   0.0000      -0.013389        -0.3643
  61   0.0000       0.006415         0.1745
  62   0.0000       0.022120         0.6019
  63   0.0000       0.032379         0.8811
  64   0.0000       0.035524         0.9667

MULLIKEN ATOMIC CHARGES
-----------------------
   0 C :    0.837470
   1 N :   -0.083641
   2 C :    0.278438
   3 C :   -0.080280
   4 H :    0.213760
   5 H :    0.007766
   6 S :    1.766935
   7 C :    0.868962
   8 N :    0.193392
   9 C :    0.302196
  10 H :    0.049128
  11 H :   -0.586174
  12 H :   -0.725236
  13 H :   -0.239850
  14 H :   -0.225208
  15 F :   -0.488174
  16 O :   -0.729343
  17 C :    0.301373
  18 H :   -0.231889
  19 H :   -0.108954
  20 C :   -0.148430
  21 H :    0.081234
  22 H :    0.023720
  23 C :   -0.141364
  24 H :   -0.030957
  25 H :    0.022063
  26 O :   -0.909869
  27 H :    0.142442
  28 H :   -0.246431
  29 H :    0.014189
  30 H :   -0.127271
Sum of atomic charges:    0.0000000

LOEWDIN ATOMIC CHARGES
----------------------
   0 C :    0.067163
   1 N :    0.002455
   2 C :   -0.021364
   3 C :   -0.045574
   4 H :    0.025625
   5 H :    0.022482
   6 S :    1.202438
   7 C :   -0.221747
   8 N :    0.200355
   9 C :    0.146176
  10 H :   -0.116956
  11 H :   -0.110514
  12 H :   -0.080839
  13 H :   -0.090715
  14 H :    0.009501
  15 F :   -0.240032
  16 O :   -0.436808
  17 C :   -0.012864
  18 H :    0.016492
  19 H :    0.018205
  20 C :   -0.024988
  21 H :    0.032235
  22 H :    0.042316
  23 C :   -0.031551
  24 H :    0.020126
  25 H :    0.021485
  26 O :   -0.477513
  27 H :    0.010799
  28 H :    0.026011
  29 H :    0.010093
  30 H :    0.037505

  Mayer bond orders larger than 0.100000
B(  0-C ,  1-N ) :   0.8758 B(  0-C , 12-H ) :  -0.3456 B(  0-C , 17-C ) :   1.0570
B(  0-C , 18-H ) :   0.9452 B(  0-C , 19-H ) :   0.7589 B(  1-N ,  7-C ) :   0.8696
B(  1-N ,  9-C ) :   0.4666 B(  1-N , 12-H ) :   1.0770 B(  1-N , 13-H ) :   0.1026
B(  1-N , 19-H ) :   0.1452 B(  2-C ,  3-C ) :   1.3336 B(  2-C ,  5-H ) :   0.1816
B(  2-C , 20-C ) :   1.2765 B(  2-C , 21-H ) :   0.7008 B(  2-C , 22-H ) :   0.8141
B(  3-C ,  4-H ) :   0.8559 B(  3-C ,  5-H ) :   0.8297 B(  3-C ,  6-S ) :   1.0548
B(  3-C , 21-H ) :   0.1114 B(  3-C , 22-H ) :   0.1113 B(  6-S , 15-F ) :   0.5464
B(  6-S , 16-O ) :   1.4257 B(  6-S , 26-O ) :   1.2336 B(  7-C ,  8-N ) :   0.7381
B(  7-C ,  9-C ) :   1.5431 B(  7-C , 10-H ) :   0.2854 B(  7-C , 11-H ) :   0.2480
B(  7-C , 12-H ) :  -0.3466 B(  7-C , 14-H ) :  -0.2083 B(  8-N ,  9-C ) :   0.2440
B(  8-N , 13-H ) :   1.0602 B(  8-N , 14-H ) :   1.3603 B(  9-C , 10-H ) :   0.6005
B(  9-C , 11-H ) :   0.8429 B(  9-C , 12-H ) :  -0.1110 B( 10-H , 18-H ) :   0.1414
B( 12-H , 19-H ) :   0.1019 B( 12-H , 27-H ) :   0.1134 B( 12-H , 28-H ) :  -0.1001
B( 13-H , 14-H ) :  -0.2010 B( 13-H , 26-O ) :   0.2231 B( 16-O , 26-O ) :   0.1533
B( 17-C , 23-C ) :   1.2820 B( 17-C , 24-H ) :   0.8299 B( 17-C , 25-H ) :   0.8495
B( 18-H , 19-H ) :  -0.1474 B( 20-C , 21-H ) :   0.2350 B( 20-C , 23-C ) :   1.1837
B( 20-C , 28-H ) :   0.1539 B( 20-C , 29-H ) :   0.9600 B( 20-C , 30-H ) :   0.8901
B( 23-C , 24-H ) :   0.1905 B( 23-C , 25-H ) :   0.1221 B( 23-C , 27-H ) :   0.8512
B( 23-C , 28-H ) :   0.9598 B( 23-C , 30-H ) :   0.1329

Dispersion correction           -0.032971056
FINAL SINGLE POINT ENERGY     -1071.517742361250

DIPOLE MOMENT
-------------
                                X             Y             Z
Electronic contribution:     -1.12822      -0.20245     -24.50415
Nuclear contribution   :      0.44707       2.53104      23.12246
                        -----------------------------------------
Total Dipole Moment    :     -0.68116       2.32859      -1.38169
                        -----------------------------------------
Magnitude (a.u.)       :      2.79202
Magnitude (Debye)      :      7.09675

Rotational constants in cm-1:     0.028906     0.014696     0.011110
Rotational constants in MHz :   866.591909   440.585554   333.081943

                             ****ORCA TERMINATED NORMALLY****
TOTAL RUN TIME: 0 days 0 hours 2 minutes 49 seconds 952 msec
