                         Program Version 5.0.0 -  RELEASE  -
|  1> !PBE0 D3BJ RIJCOSX def2-SVPD def2/J TightSCF xyzfile
|  2>
|  3> *xyzfile 0 1 D5.xyz
|  4>
|  5> %MaxCore 64000
|  6>
|  7> %pal nprocs 4
|  8> end
|  9>
| 10> %scf
| 11>   MaxIter 150
| 12> end
| 13>
| 14>
| 15>                          ****END OF INPUT****

CARTESIAN COORDINATES (ANGSTROEM)
---------------------------------
  C      1.963365   -1.749150   -1.896887
  N      2.738490   -2.015170   -3.097113
  C      0.611877    1.657634   -4.500288
  C      1.694991    1.541794   -5.570447
  H      2.697326    1.734659   -5.183996
  H      1.506656    2.272239   -6.358076
  S      1.780287   -0.033128   -6.428739
  C      4.049736   -2.154717   -3.152044
  C      4.658206   -1.986293   -4.318655
  N      4.764231   -2.454435   -2.050491
  H      4.287363   -2.776259   -1.217496
  H      5.750825   -2.658351   -2.125988
  H      2.345176   -1.690274   -3.971447
  H      4.109004   -1.592677   -5.071760
  H      5.649095   -2.156462   -4.427237
  O      2.569287    0.213657   -7.607360
  F      0.416880   -0.462969   -6.618595
  C      2.088520   -0.300912   -1.415204
  H      2.231272   -2.451616   -1.102643
  H      0.930249   -1.977801   -2.155438
  C      0.680356    0.655418   -3.348038
  H     -0.356865    1.549231   -4.991128
  H      0.650228    2.675438   -4.096000
  C      1.968993    0.733582   -2.535654
  H      3.051356   -0.168602   -0.911868
  H      1.316501   -0.136231   -0.657252
  O      2.505129   -0.933263   -5.482570
  H      2.824195    0.624726   -3.208464
  H      2.058919    1.730331   -2.093112
  H      0.542252   -0.344731   -3.766662
  H     -0.174219    0.829692   -2.685182

 Total Charge           Charge          ....    0
 Multiplicity           Mult            ....    1
 Number of Electrons    NEL             ....  120
 Basis Dimension        Dim             ....  432

ORBITAL ENERGIES
----------------

  NO   OCC          E(Eh)            E(eV)
   0   2.0000     -89.309820     -2430.2438
   1   2.0000     -24.915320      -677.9803
   2   2.0000     -19.243957      -523.6547
   3   2.0000     -19.231058      -523.3037
   4   2.0000     -14.377885      -391.2421
   5   2.0000     -14.364147      -390.8683
   6   2.0000     -10.302924      -280.3568
   7   2.0000     -10.272231      -279.5216
   8   2.0000     -10.258880      -279.1583
   9   2.0000     -10.252165      -278.9756
  10   2.0000     -10.249942      -278.9151
  11   2.0000     -10.235971      -278.5349
  12   2.0000     -10.229246      -278.3519
  13   2.0000     -10.114380      -275.2263
  14   2.0000      -8.269021      -225.0115
  15   2.0000      -6.215472      -169.1316
  16   2.0000      -6.209040      -168.9566
  17   2.0000      -6.207579      -168.9168
  18   2.0000      -1.420630       -38.6573
  19   2.0000      -1.149040       -31.2670
  20   2.0000      -1.043768       -28.4024
  21   2.0000      -0.965467       -26.2717
  22   2.0000      -0.882426       -24.0120
  23   2.0000      -0.868255       -23.6264
  24   2.0000      -0.814801       -22.1719
  25   2.0000      -0.779335       -21.2068
  26   2.0000      -0.746424       -20.3112
  27   2.0000      -0.718518       -19.5519
  28   2.0000      -0.678317       -18.4579
  29   2.0000      -0.647905       -17.6304
  30   2.0000      -0.625819       -17.0294
  31   2.0000      -0.623327       -16.9616
  32   2.0000      -0.608753       -16.5650
  33   2.0000      -0.586002       -15.9459
  34   2.0000      -0.567663       -15.4469
  35   2.0000      -0.533865       -14.5272
  36   2.0000      -0.519493       -14.1361
  37   2.0000      -0.513054       -13.9609
  38   2.0000      -0.498501       -13.5649
  39   2.0000      -0.490730       -13.3535
  40   2.0000      -0.487421       -13.2634
  41   2.0000      -0.475789       -12.9469
  42   2.0000      -0.460388       -12.5278
  43   2.0000      -0.447035       -12.1645
  44   2.0000      -0.440222       -11.9791
  45   2.0000      -0.415437       -11.3046
  46   2.0000      -0.410719       -11.1762
  47   2.0000      -0.402683       -10.9576
  48   2.0000      -0.392252       -10.6737
  49   2.0000      -0.378066       -10.2877
  50   2.0000      -0.375143       -10.2082
  51   2.0000      -0.366044        -9.9606
  52   2.0000      -0.354132        -9.6364
  53   2.0000      -0.347180        -9.4472
  54   2.0000      -0.344314        -9.3693
  55   2.0000      -0.339638        -9.2420
  56   2.0000      -0.333748        -9.0818
  57   2.0000      -0.324368        -8.8265
  58   2.0000      -0.245428        -6.6784
  59   2.0000      -0.150134        -4.0853
  60   0.0000      -0.007203        -0.1960
  61   0.0000       0.021354         0.5811
  62   0.0000       0.024291         0.6610
  63   0.0000       0.029488         0.8024
  64   0.0000       0.040942         1.1141

MULLIKEN ATOMIC CHARGES
-----------------------
   0 C :    0.878493
   1 N :   -0.217314
   2 C :    0.319021
   3 C :   -0.059262
   4 H :    0.181318
   5 H :    0.006476
   6 S :    1.661292
   7 C :    0.856341
   8 C :    0.476151
   9 N :   -0.006001
  10 H :   -0.052040
  11 H :   -0.192585
  12 H :   -0.506175
  13 H :   -0.106977
  14 H :   -0.580510
  15 O :   -0.709862
  16 F :   -0.481078
  17 C :    0.244381
  18 H :   -0.335800
  19 H :   -0.106209
  20 C :   -0.109901
  21 H :    0.059725
  22 H :    0.016088
  23 C :   -0.155019
  24 H :    0.031919
  25 H :   -0.027270
  26 O :   -0.908438
  27 H :    0.191899
  28 H :   -0.263752
  29 H :    0.020317
  30 H :   -0.125228
Sum of atomic charges:   -0.0000000

LOEWDIN ATOMIC CHARGES
----------------------
   0 C :    0.056897
   1 N :    0.000068
   2 C :   -0.037972
   3 C :   -0.034797
   4 H :    0.037886
   5 H :    0.024701
   6 S :    1.194016
   7 C :   -0.219446
   8 C :    0.166356
   9 N :    0.189019
  10 H :   -0.026696
  11 H :    0.001946
  12 H :   -0.076370
  13 H :   -0.155341
  14 H :   -0.096296
  15 O :   -0.438056
  16 F :   -0.245017
  17 C :   -0.018855
  18 H :    0.008432
  19 H :    0.016311
  20 C :   -0.031208
  21 H :    0.026185
  22 H :    0.038803
  23 C :   -0.026775
  24 H :    0.020384
  25 H :    0.018865
  26 O :   -0.475631
  27 H :    0.014807
  28 H :    0.027342
  29 H :    0.004985
  30 H :    0.035460

  Mayer bond orders larger than 0.100000
B(  0-C ,  1-N ) :   0.8609 B(  0-C , 12-H ) :  -0.3079 B(  0-C , 17-C ) :   1.0799
B(  0-C , 18-H ) :   0.9343 B(  0-C , 19-H ) :   0.6930 B(  0-C , 25-H ) :   0.1122
B(  1-N ,  7-C ) :   0.9798 B(  1-N ,  8-C ) :   0.2324 B(  1-N ,  9-N ) :   0.2418
B(  1-N , 12-H ) :   1.1583 B(  1-N , 18-H ) :   0.1023 B(  1-N , 19-H ) :   0.1388
B(  2-C ,  3-C ) :   1.2783 B(  2-C ,  5-H ) :   0.1592 B(  2-C , 20-C ) :   1.2759
B(  2-C , 21-H ) :   0.7008 B(  2-C , 22-H ) :   0.8110 B(  3-C ,  4-H ) :   0.8805
B(  3-C ,  5-H ) :   0.8905 B(  3-C ,  6-S ) :   1.0751 B(  3-C , 21-H ) :   0.1076
B(  3-C , 22-H ) :   0.1137 B(  6-S , 15-O ) :   1.5231 B(  6-S , 16-F ) :   0.4983
B(  6-S , 26-O ) :   1.3035 B(  7-C ,  8-C ) :   1.4350 B(  7-C ,  9-N ) :   0.8309
B(  7-C , 11-H ) :  -0.1421 B(  7-C , 12-H ) :  -0.3204 B(  7-C , 13-H ) :   0.1140
B(  7-C , 14-H ) :   0.2131 B(  8-C ,  9-N ) :   0.2674 B(  8-C , 13-H ) :   0.6277
B(  8-C , 14-H ) :   0.8114 B(  9-N , 10-H ) :   0.9868 B(  9-N , 11-H ) :   1.2921
B( 10-H , 11-H ) :  -0.2014 B( 12-H , 19-H ) :   0.1646 B( 12-H , 24-H ) :   0.1290
B( 12-H , 27-H ) :   0.1048 B( 13-H , 14-H ) :  -0.1609 B( 13-H , 26-O ) :   0.2143
B( 16-F , 26-O ) :   0.1600 B( 17-C , 18-H ) :   0.1129 B( 17-C , 19-H ) :   0.1024
B( 17-C , 23-C ) :   1.2836 B( 17-C , 24-H ) :   0.7868 B( 17-C , 25-H ) :   0.9064
B( 18-H , 19-H ) :  -0.1105 B( 20-C , 21-H ) :   0.2329 B( 20-C , 23-C ) :   1.1872
B( 20-C , 28-H ) :   0.1323 B( 20-C , 29-H ) :   0.9418 B( 20-C , 30-H ) :   0.8945
B( 23-C , 24-H ) :   0.1782 B( 23-C , 25-H ) :   0.1222 B( 23-C , 27-H ) :   0.8500
B( 23-C , 28-H ) :   0.9905 B( 23-C , 30-H ) :   0.1286

Dispersion correction           -0.032931596
FINAL SINGLE POINT ENERGY     -1071.505430924736

DIPOLE MOMENT
-------------
                                X             Y             Z
Electronic contribution:     -4.61256      -1.96432     -20.69417
Nuclear contribution   :      2.89225       3.36404      21.70199
                        -----------------------------------------
Total Dipole Moment    :     -1.72031       1.39971       1.00782
                        -----------------------------------------
Magnitude (a.u.)       :      2.43605
Magnitude (Debye)      :      6.19195

Rotational constants in cm-1:     0.029431     0.014408     0.011084
Rotational constants in MHz :   882.306106   431.946714   332.288152

                             ****ORCA TERMINATED NORMALLY****
TOTAL RUN TIME: 0 days 0 hours 2 minutes 51 seconds 199 msec
