                         Program Version 5.0.0 -  RELEASE  -
|  1> !PBE0 D3BJ RIJCOSX def2-SVPD def2/J TightSCF xyzfile
|  2>
|  3> *xyzfile 0 1 D7.xyz
|  4>
|  5> %MaxCore 64000
|  6>
|  7> %pal nprocs 4
|  8> end
|  9>
| 10> %scf
| 11>   MaxIter 150
| 12> end
| 13>
| 14>
| 15>                          ****END OF INPUT****

CARTESIAN COORDINATES (ANGSTROEM)
---------------------------------
  C      1.963365   -1.749150   -1.896887
  C      2.738490   -2.015170   -3.097113
  C      0.611877    1.657634   -4.500288
  C      1.694991    1.541794   -5.570447
  H      2.697326    1.734659   -5.183996
  H      1.506656    2.272239   -6.358076
  S      1.780287   -0.033128   -6.428739
  C      4.049736   -2.154717   -3.152044
  N      4.658206   -1.986293   -4.318655
  N      4.764231   -2.454435   -2.050491
  H      4.287363   -2.776259   -1.217496
  H      5.750825   -2.658351   -2.125988
  H      2.345176   -1.690274   -3.971447
  H      4.109004   -1.592677   -5.071760
  H      5.649095   -2.156462   -4.427237
  O      2.569287    0.213657   -7.607360
  O      0.416880   -0.462969   -6.618595
  C      2.088520   -0.300912   -1.415204
  H      2.231272   -2.451616   -1.102643
  H      0.930249   -1.977801   -2.155438
  C      0.680356    0.655418   -3.348038
  H     -0.356865    1.549231   -4.991128
  H      0.650228    2.675438   -4.096000
  C      1.968993    0.733582   -2.535654
  H      3.051356   -0.168602   -0.911868
  H      1.316501   -0.136231   -0.657252
  F      2.505129   -0.933263   -5.482570
  H      2.824195    0.624726   -3.208464
  H      2.058919    1.730331   -2.093112
  H      0.542252   -0.344731   -3.766662
  H     -0.174219    0.829692   -2.685182

 Total Charge           Charge          ....    0
 Multiplicity           Mult            ....    1
 Number of Electrons    NEL             ....  120
 Basis Dimension        Dim             ....  432

ORBITAL ENERGIES
----------------

  NO   OCC          E(Eh)            E(eV)
   0   2.0000     -89.298364     -2429.9320
   1   2.0000     -24.890015      -677.2917
   2   2.0000     -19.237027      -523.4661
   3   2.0000     -19.236523      -523.4524
   4   2.0000     -14.400372      -391.8540
   5   2.0000     -14.395128      -391.7113
   6   2.0000     -10.294376      -280.1242
   7   2.0000     -10.277195      -279.6567
   8   2.0000     -10.257507      -279.1209
   9   2.0000     -10.237466      -278.5756
  10   2.0000     -10.228898      -278.3425
  11   2.0000     -10.219172      -278.0778
  12   2.0000     -10.211401      -277.8664
  13   2.0000     -10.150744      -276.2158
  14   2.0000      -8.257768      -224.7053
  15   2.0000      -6.204046      -168.8207
  16   2.0000      -6.197905      -168.6536
  17   2.0000      -6.196487      -168.6150
  18   2.0000      -1.381673       -37.5972
  19   2.0000      -1.152429       -31.3592
  20   2.0000      -1.056714       -28.7546
  21   2.0000      -0.981194       -26.6996
  22   2.0000      -0.890437       -24.2300
  23   2.0000      -0.857640       -23.3376
  24   2.0000      -0.819903       -22.3107
  25   2.0000      -0.775008       -21.0890
  26   2.0000      -0.754542       -20.5321
  27   2.0000      -0.715822       -19.4785
  28   2.0000      -0.683717       -18.6049
  29   2.0000      -0.644209       -17.5298
  30   2.0000      -0.609524       -16.5860
  31   2.0000      -0.600105       -16.3297
  32   2.0000      -0.593764       -16.1572
  33   2.0000      -0.584288       -15.8993
  34   2.0000      -0.563451       -15.3323
  35   2.0000      -0.559839       -15.2340
  36   2.0000      -0.522588       -14.2203
  37   2.0000      -0.512112       -13.9353
  38   2.0000      -0.505350       -13.7513
  39   2.0000      -0.489282       -13.3140
  40   2.0000      -0.486497       -13.2382
  41   2.0000      -0.475694       -12.9443
  42   2.0000      -0.461324       -12.5533
  43   2.0000      -0.448389       -12.2013
  44   2.0000      -0.437238       -11.8978
  45   2.0000      -0.413760       -11.2590
  46   2.0000      -0.413033       -11.2392
  47   2.0000      -0.407833       -11.0977
  48   2.0000      -0.399314       -10.8659
  49   2.0000      -0.381618       -10.3843
  50   2.0000      -0.371436       -10.1073
  51   2.0000      -0.358688        -9.7604
  52   2.0000      -0.356325        -9.6961
  53   2.0000      -0.347574        -9.4580
  54   2.0000      -0.342057        -9.3079
  55   2.0000      -0.335687        -9.1345
  56   2.0000      -0.325991        -8.8707
  57   2.0000      -0.321181        -8.7398
  58   2.0000      -0.280142        -7.6231
  59   2.0000      -0.172536        -4.6949
  60   0.0000       0.006283         0.1710
  61   0.0000       0.020812         0.5663
  62   0.0000       0.028971         0.7884
  63   0.0000       0.031033         0.8445
  64   0.0000       0.040934         1.1139

MULLIKEN ATOMIC CHARGES
-----------------------
   0 C :    0.154653
   1 C :   -0.158469
   2 C :    0.342441
   3 C :   -0.067504
   4 H :    0.218825
   5 H :   -0.064661
   6 S :    1.648635
   7 C :    0.997841
   8 N :    0.002813
   9 N :   -0.183427
  10 H :   -0.003885
  11 H :   -0.246915
  12 H :   -0.188361
  13 H :   -0.147119
  14 H :   -0.245391
  15 O :   -0.744614
  16 O :   -0.757798
  17 C :    0.417228
  18 H :   -0.273179
  19 H :    0.166685
  20 C :   -0.139632
  21 H :    0.062871
  22 H :    0.019561
  23 C :   -0.271670
  24 H :    0.036051
  25 H :    0.088057
  26 F :   -0.526372
  27 H :    0.120511
  28 H :   -0.132799
  29 H :   -0.026226
  30 H :   -0.098148
Sum of atomic charges:   -0.0000000

LOEWDIN ATOMIC CHARGES
----------------------
   0 C :   -0.050068
   1 C :   -0.031344
   2 C :   -0.034280
   3 C :   -0.041615
   4 H :    0.021756
   5 H :    0.033566
   6 S :    1.147487
   7 C :   -0.192724
   8 N :    0.196644
   9 N :    0.198465
  10 H :   -0.006025
  11 H :   -0.010247
  12 H :   -0.103373
  13 H :   -0.047393
  14 H :    0.000299
  15 O :   -0.455126
  16 O :   -0.445442
  17 C :   -0.023546
  18 H :    0.004955
  19 H :    0.014327
  20 C :   -0.024433
  21 H :    0.030867
  22 H :    0.037005
  23 C :   -0.034651
  24 H :    0.019960
  25 H :    0.018819
  26 F :   -0.305381
  27 H :    0.007694
  28 H :    0.026102
  29 H :    0.010502
  30 H :    0.037198

  Mayer bond orders larger than 0.100000
B(  0-C ,  1-C ) :   1.1300 B(  0-C , 12-H ) :   0.3649 B(  0-C , 17-C ) :   1.1426
B(  0-C , 18-H ) :   0.8880 B(  0-C , 19-H ) :   0.6943 B(  0-C , 23-C ) :   0.1028
B(  0-C , 24-H ) :   0.1185 B(  0-C , 25-H ) :   0.1578 B(  1-C ,  7-C ) :   1.7364
B(  1-C ,  8-N ) :   0.2683 B(  1-C ,  9-N ) :   0.2298 B(  1-C , 12-H ) :   0.1825
B(  1-C , 18-H ) :   0.2269 B(  1-C , 19-H ) :   0.2553 B(  2-C ,  3-C ) :   1.2776
B(  2-C ,  4-H ) :   0.1151 B(  2-C ,  5-H ) :   0.1639 B(  2-C , 20-C ) :   1.2752
B(  2-C , 21-H ) :   0.7135 B(  2-C , 22-H ) :   0.7928 B(  3-C ,  4-H ) :   0.8527
B(  3-C ,  5-H ) :   0.8589 B(  3-C ,  6-S ) :   1.0945 B(  3-C , 21-H ) :   0.1220
B(  3-C , 22-H ) :   0.1045 B(  6-S , 15-O ) :   1.4603 B(  6-S , 16-O ) :   1.4139
B(  6-S , 26-F ) :   0.5480 B(  7-C ,  8-N ) :   0.6904 B(  7-C ,  9-N ) :   0.7854
B(  7-C , 11-H ) :  -0.2137 B(  7-C , 12-H ) :   0.4452 B(  7-C , 13-H ) :  -0.1007
B(  7-C , 14-H ) :  -0.2706 B(  8-N ,  9-N ) :   0.1141 B(  8-N , 13-H ) :   1.1605
B(  8-N , 14-H ) :   1.4012 B(  9-N , 10-H ) :   1.0486 B(  9-N , 11-H ) :   1.4021
B( 10-H , 11-H ) :  -0.2082 B( 12-H , 23-C ) :   0.1065 B( 13-H , 14-H ) :  -0.1854
B( 13-H , 26-F ) :   0.1655 B( 17-C , 23-C ) :   1.2631 B( 17-C , 24-H ) :   0.7839
B( 17-C , 25-H ) :   0.7178 B( 20-C , 21-H ) :   0.2352 B( 20-C , 22-H ) :   0.1026
B( 20-C , 23-C ) :   1.2016 B( 20-C , 28-H ) :   0.1551 B( 20-C , 29-H ) :   0.9608
B( 20-C , 30-H ) :   0.8696 B( 23-C , 24-H ) :   0.2165 B( 23-C , 25-H ) :   0.1420
B( 23-C , 27-H ) :   0.9010 B( 23-C , 28-H ) :   0.9315 B( 23-C , 30-H ) :   0.1557

Dispersion correction           -0.032799931
FINAL SINGLE POINT ENERGY     -1071.529368993939

DIPOLE MOMENT
-------------
                                X             Y             Z
Electronic contribution:      0.78061      -3.10431     -19.37537
Nuclear contribution   :      0.26049       3.89757      20.56096
                        -----------------------------------------
Total Dipole Moment    :      1.04110       0.79326       1.18559
                        -----------------------------------------
Magnitude (a.u.)       :      1.76600
Magnitude (Debye)      :      4.48883

Rotational constants in cm-1:     0.029090     0.014735     0.011139
Rotational constants in MHz :   872.086433   441.731892   333.928051

                             ****ORCA TERMINATED NORMALLY****
TOTAL RUN TIME: 0 days 0 hours 2 minutes 37 seconds 921 msec
