                         Program Version 5.0.0 -  RELEASE  -
|  1> !PBE0 D3BJ RIJCOSX def2-SVPD def2/J TightSCF
|  2> *xyz -1 1
|  3> C         -0.15102        0.25496       -4.09426
|  4> C         -0.72184       -0.99951       -3.43931
|  5> H         -1.08340       -1.69755       -4.20566
|  6> H         -1.58106       -0.72385       -2.82049
|  7> C          0.28725       -1.71177       -2.52740
|  8> H          1.13178       -2.06738       -3.15940
|  9> H         -0.20414       -2.63733       -2.17048
| 10> O          0.71050       -0.92751       -1.48177
| 11> H         -0.89787        0.70479       -4.71455
| 12> H          0.69695       -0.00870       -4.69119
| 13> H          0.14812        0.94842       -3.33628
| 14> *
| 15> %MaxCore 64000
| 16>
| 17> %pal nprocs 4
| 18> end
| 19>
| 20> %scf
| 21>   MaxIter 150
| 22> end
| 23>
| 24>
| 25>                          ****END OF INPUT****

CARTESIAN COORDINATES (ANGSTROEM)
---------------------------------
  C     -0.151020    0.254960   -4.094260
  C     -0.721840   -0.999510   -3.439310
  H     -1.083400   -1.697550   -4.205660
  H     -1.581060   -0.723850   -2.820490
  C      0.287250   -1.711770   -2.527400
  H      1.131780   -2.067380   -3.159400
  H     -0.204140   -2.637330   -2.170480
  O      0.710500   -0.927510   -1.481770
  H     -0.897870    0.704790   -4.714550
  H      0.696950   -0.008700   -4.691190
  H      0.148120    0.948420   -3.336280

 Total Charge           Charge          ....   -1
 Multiplicity           Mult            ....    1
 Number of Electrons    NEL             ....   34
 Basis Dimension        Dim             ....  139

ORBITAL ENERGIES
----------------

  NO   OCC          E(Eh)            E(eV)
   0   2.0000     -18.887149      -513.9455
   1   2.0000     -10.049522      -273.4614
   2   2.0000     -10.047246      -273.3995
   3   2.0000     -10.041319      -273.2382
   4   2.0000      -0.699770       -19.0417
   5   2.0000      -0.599773       -16.3207
   6   2.0000      -0.481707       -13.1079
   7   2.0000      -0.377834       -10.2814
   8   2.0000      -0.287863        -7.8331
   9   2.0000      -0.279700        -7.6110
  10   2.0000      -0.232270        -6.3204
  11   2.0000      -0.199474        -5.4280
  12   2.0000      -0.173866        -4.7311
  13   2.0000      -0.163949        -4.4613
  14   2.0000      -0.125351        -3.4110
  15   2.0000       0.015351         0.4177
  16   2.0000       0.018925         0.5150
  17   0.0000       0.172196         4.6857
  18   0.0000       0.197451         5.3729
  19   0.0000       0.213198         5.8014
  20   0.0000       0.241965         6.5842
  21   0.0000       0.258028         7.0213

MULLIKEN ATOMIC CHARGES
-----------------------
   0 C :    0.454080
   1 C :   -0.682140
   2 H :   -0.006435
   3 H :    0.000997
   4 C :    0.398101
   5 H :   -0.064760
   6 H :   -0.111825
   7 O :   -0.947708
   8 H :   -0.036471
   9 H :   -0.023730
  10 H :    0.019891
Sum of atomic charges:   -1.0000000

LOEWDIN ATOMIC CHARGES
----------------------
   0 C :    0.081213
   1 C :   -0.123017
   2 H :   -0.009856
   3 H :    0.004535
   4 C :   -0.217861
   5 H :   -0.025674
   6 H :   -0.032872
   7 O :   -0.566823
   8 H :   -0.047212
   9 H :   -0.032761
  10 H :   -0.029672

  Mayer bond orders larger than 0.100000
B(  0-C ,  1-C ) :   1.2642 B(  0-C ,  8-H ) :   0.8282 B(  0-C ,  9-H ) :   0.8584
B(  0-C , 10-H ) :   0.8595 B(  1-C ,  2-H ) :   1.0217 B(  1-C ,  3-H ) :   0.9978
B(  1-C ,  4-C ) :   1.0571 B(  1-C ,  5-H ) :   0.1129 B(  1-C ,  6-H ) :   0.1353
B(  1-C ,  7-O ) :   0.1395 B(  1-C ,  8-H ) :   0.1714 B(  1-C ,  9-H ) :   0.1759
B(  1-C , 10-H ) :   0.1893 B(  3-H ,  4-C ) :   0.1253 B(  4-C ,  5-H ) :   0.9700
B(  4-C ,  6-H ) :   0.9674 B(  4-C ,  7-O ) :   1.0714

Dispersion correction           -0.005476996
FINAL SINGLE POINT ENERGY      -193.384682377748

DIPOLE MOMENT
-------------
                                X             Y             Z
Electronic contribution:      1.04255      -0.19303       2.78747
Nuclear contribution   :     -1.95025       0.39850      -4.64834
                        -----------------------------------------
Total Dipole Moment    :     -0.90770       0.20547      -1.86086
                        -----------------------------------------
Magnitude (a.u.)       :      2.08062
Magnitude (Debye)      :      5.28850

Rotational constants in cm-1:     0.507767     0.175836     0.148827
Rotational constants in MHz : 15222.471408  5271.439482  4461.706759

                             ****ORCA TERMINATED NORMALLY****
TOTAL RUN TIME: 0 days 0 hours 0 minutes 10 seconds 195 msec
