                         Program Version 5.0.0 -  RELEASE  -
|  1> !PBE0 D3BJ RIJCOSX def2-SVPD def2/J TightSCF
|  2> *xyz 1 1
|  3> C          3.48828        1.60092       -1.52204
|  4> C          4.34297        1.31342       -2.75683
|  5> N          2.81029        0.42878       -1.01420
|  6> H          5.13203        0.60499       -2.48447
|  7> C          3.53590        0.74925       -3.92460
|  8> H          4.84125        2.24214       -3.05408
|  9> H          2.71455        2.33145       -1.76030
| 10> H          4.09099        2.06315       -0.73338
| 11> C          3.29098       -0.41802       -0.12908
| 12> N          2.51754       -1.43202        0.23936
| 13> N          4.53549       -0.28441        0.39580
| 14> H          5.04363        0.57189        0.22290
| 15> H          4.72335       -0.73327        1.28180
| 16> H          1.93479        0.10230       -1.40379
| 17> H          1.67464       -1.50562       -0.31610
| 18> H          2.92850       -2.21850        0.72549
| 19> H          4.18704        0.56990       -4.75451
| 20> H          2.78096        1.45217       -4.20898
| 21> H          3.07436       -0.16949       -3.62832
| 22> *
| 23> %MaxCore 64000
| 24>
| 25> %pal nprocs 4
| 26> end
| 27>
| 28> %scf
| 29>   MaxIter 150
| 30> end
| 31>
| 32>
| 33>                          ****END OF INPUT****

CARTESIAN COORDINATES (ANGSTROEM)
---------------------------------
  C      3.488280    1.600920   -1.522040
  C      4.342970    1.313420   -2.756830
  N      2.810290    0.428780   -1.014200
  H      5.132030    0.604990   -2.484470
  C      3.535900    0.749250   -3.924600
  H      4.841250    2.242140   -3.054080
  H      2.714550    2.331450   -1.760300
  H      4.090990    2.063150   -0.733380
  C      3.290980   -0.418020   -0.129080
  N      2.517540   -1.432020    0.239360
  N      4.535490   -0.284410    0.395800
  H      5.043630    0.571890    0.222900
  H      4.723350   -0.733270    1.281800
  H      1.934790    0.102300   -1.403790
  H      1.674640   -1.505620   -0.316100
  H      2.928500   -2.218500    0.725490
  H      4.187040    0.569900   -4.754510
  H      2.780960    1.452170   -4.208980
  H      3.074360   -0.169490   -3.628320

 Total Charge           Charge          ....    1
 Multiplicity           Mult            ....    1
 Number of Electrons    NEL             ....   56
 Basis Dimension        Dim             ....  236

ORBITAL ENERGIES
----------------

  NO   OCC          E(Eh)            E(eV)
   0   2.0000     -14.624943      -397.9649
   1   2.0000     -14.619291      -397.8111
   2   2.0000     -14.616685      -397.7402
   3   2.0000     -10.565102      -287.4910
   4   2.0000     -10.439227      -284.0658
   5   2.0000     -10.376935      -282.3708
   6   2.0000     -10.347805      -281.5781
   7   2.0000      -1.239129       -33.7184
   8   2.0000      -1.124770       -30.6065
   9   2.0000      -1.110408       -30.2157
  10   2.0000      -0.960678       -26.1414
  11   2.0000      -0.880148       -23.9500
  12   2.0000      -0.841545       -22.8996
  13   2.0000      -0.798878       -21.7386
  14   2.0000      -0.784410       -21.3449
  15   2.0000      -0.745566       -20.2879
  16   2.0000      -0.707639       -19.2558
  17   2.0000      -0.697964       -18.9926
  18   2.0000      -0.670082       -18.2338
  19   2.0000      -0.653148       -17.7731
  20   2.0000      -0.612949       -16.6792
  21   2.0000      -0.596442       -16.2300
  22   2.0000      -0.565373       -15.3846
  23   2.0000      -0.517518       -14.0824
  24   2.0000      -0.503901       -13.7119
  25   2.0000      -0.496393       -13.5075
  26   2.0000      -0.488430       -13.2909
  27   2.0000      -0.460593       -12.5334
  28   0.0000      -0.166148        -4.5211
  29   0.0000      -0.148118        -4.0305
  30   0.0000      -0.117928        -3.2090
  31   0.0000      -0.100003        -2.7212
  32   0.0000      -0.075161        -2.0452

MULLIKEN ATOMIC CHARGES
-----------------------
   0 C :    0.731834
   1 C :   -0.463442
   2 N :   -0.650203
   3 H :    0.036877
   4 C :    0.554449
   5 H :   -0.019230
   6 H :   -0.176267
   7 H :   -0.023196
   8 C :    1.580359
   9 N :   -0.137215
  10 N :   -0.093837
  11 H :   -0.020616
  12 H :   -0.115971
  13 H :   -0.197481
  14 H :    0.031904
  15 H :   -0.047614
  16 H :   -0.005535
  17 H :    0.068928
  18 H :   -0.053743
Sum of atomic charges:    1.0000000

LOEWDIN ATOMIC CHARGES
----------------------
   0 C :    0.073670
   1 C :   -0.055989
   2 N :    0.039323
   3 H :    0.024093
   4 C :    0.132296
   5 H :    0.040214
   6 H :    0.046671
   7 H :    0.030585
   8 C :   -0.023805
   9 N :    0.259344
  10 N :    0.279132
  11 H :    0.010021
  12 H :    0.035973
  13 H :    0.056409
  14 H :    0.034605
  15 H :    0.046736
  16 H :   -0.000087
  17 H :   -0.004465
  18 H :   -0.024724

  Mayer bond orders larger than 0.100000
B(  0-C ,  1-C ) :   1.0961 B(  0-C ,  2-N ) :   0.8420 B(  0-C ,  6-H ) :   0.8386
B(  0-C ,  7-H ) :   0.8785 B(  0-C , 13-H ) :  -0.2271 B(  1-C ,  3-H ) :   0.9377
B(  1-C ,  4-C ) :   1.3281 B(  1-C ,  5-H ) :   1.0046 B(  1-C ,  6-H ) :   0.1209
B(  1-C , 16-H ) :   0.1834 B(  1-C , 17-H ) :   0.1757 B(  1-C , 18-H ) :   0.1734
B(  2-N ,  6-H ) :   0.2072 B(  2-N ,  7-H ) :   0.1178 B(  2-N ,  8-C ) :   0.8968
B(  2-N ,  9-N ) :   0.2949 B(  2-N , 10-N ) :   0.2139 B(  2-N , 13-H ) :   1.3607
B(  4-C , 16-H ) :   0.8406 B(  4-C , 17-H ) :   0.8023 B(  4-C , 18-H ) :   0.8621
B(  8-C ,  9-N ) :   0.8100 B(  8-C , 10-N ) :   0.8614 B(  8-C , 11-H ) :  -0.1013
B(  8-C , 12-H ) :  -0.1263 B(  8-C , 13-H ) :  -0.2670 B(  8-C , 14-H ) :  -0.1072
B(  9-N , 10-N ) :   0.1418 B(  9-N , 14-H ) :   1.0628 B(  9-N , 15-H ) :   1.1942
B( 10-N , 11-H ) :   1.0310 B( 10-N , 12-H ) :   1.2576 B( 11-H , 12-H ) :  -0.1558
B( 14-H , 15-H ) :  -0.1355

Dispersion correction           -0.013403360
FINAL SINGLE POINT ENERGY      -323.132875434717

DIPOLE MOMENT
-------------
                                X             Y             Z
Electronic contribution:     -1.34276      -2.88569       6.36594
Nuclear contribution   :      1.03951       2.07316      -5.00363
                        -----------------------------------------
Total Dipole Moment    :     -0.30325      -0.81253       1.36232
                        -----------------------------------------
Magnitude (a.u.)       :      1.61495
Magnitude (Debye)      :      4.10488

Rotational constants in cm-1:     0.160664     0.048801     0.043832
Rotational constants in MHz :  4816.589604  1463.007061  1314.037102

                             ****ORCA TERMINATED NORMALLY****
TOTAL RUN TIME: 0 days 0 hours 0 minutes 28 seconds 162 msec
