                         Program Version 5.0.0 -  RELEASE  -
|  1> !PBE0 D3BJ RIJCOSX def2-SVPD def2/J TightSCF
|  2> *xyz 0 1
|  3> C         -0.15102        0.25496       -4.09426
|  4> C         -0.72184       -0.99951       -3.43931
|  5> H         -1.08340       -1.69755       -4.20566
|  6> H         -1.58106       -0.72385       -2.82049
|  7> C          0.28725       -1.71177       -2.52740
|  8> H          1.13178       -2.06738       -3.15940
|  9> H         -0.20414       -2.63733       -2.17048
| 10> F          0.71050       -0.92751       -1.48177
| 11> H         -0.89787        0.70479       -4.71455
| 12> H          0.69695       -0.00870       -4.69119
| 13> H          0.14812        0.94842       -3.33628
| 14> *
| 15> %MaxCore 64000
| 16>
| 17> %pal nprocs 4
| 18> end
| 19>
| 20> %scf
| 21>   MaxIter 150
| 22> end
| 23>
| 24>
| 25>                          ****END OF INPUT****

CARTESIAN COORDINATES (ANGSTROEM)
---------------------------------
  C     -0.151020    0.254960   -4.094260
  C     -0.721840   -0.999510   -3.439310
  H     -1.083400   -1.697550   -4.205660
  H     -1.581060   -0.723850   -2.820490
  C      0.287250   -1.711770   -2.527400
  H      1.131780   -2.067380   -3.159400
  H     -0.204140   -2.637330   -2.170480
  F      0.710500   -0.927510   -1.481770
  H     -0.897870    0.704790   -4.714550
  H      0.696950   -0.008700   -4.691190
  H      0.148120    0.948420   -3.336280

 Total Charge           Charge          ....    0
 Multiplicity           Mult            ....    1
 Number of Electrons    NEL             ....   34
 Basis Dimension        Dim             ....  139

ORBITAL ENERGIES
----------------

  NO   OCC          E(Eh)            E(eV)
   0   2.0000     -24.772844      -674.1033
   1   2.0000     -10.310954      -280.5753
   2   2.0000     -10.240175      -278.6493
   3   2.0000     -10.219322      -278.0819
   4   2.0000      -1.214737       -33.0547
   5   2.0000      -0.807833       -21.9822
   6   2.0000      -0.705989       -19.2109
   7   2.0000      -0.612038       -16.6544
   8   2.0000      -0.527974       -14.3669
   9   2.0000      -0.509415       -13.8619
  10   2.0000      -0.486582       -13.2406
  11   2.0000      -0.451433       -12.2841
  12   2.0000      -0.416568       -11.3354
  13   2.0000      -0.391084       -10.6419
  14   2.0000      -0.366108        -9.9623
  15   2.0000      -0.340226        -9.2580
  16   2.0000      -0.340174        -9.2566
  17   0.0000       0.028730         0.7818
  18   0.0000       0.055354         1.5063
  19   0.0000       0.064012         1.7419
  20   0.0000       0.075797         2.0625
  21   0.0000       0.098935         2.6922

MULLIKEN ATOMIC CHARGES
-----------------------
   0 C :    0.476032
   1 C :   -0.657622
   2 H :   -0.000119
   3 H :   -0.004554
   4 C :    0.686028
   5 H :    0.014093
   6 H :   -0.024657
   7 F :   -0.484760
   8 H :   -0.011573
   9 H :   -0.008441
  10 H :    0.015573
Sum of atomic charges:    0.0000000

LOEWDIN ATOMIC CHARGES
----------------------
   0 C :    0.116210
   1 C :   -0.074426
   2 H :    0.029893
   3 H :    0.025551
   4 C :    0.099178
   5 H :    0.037226
   6 H :    0.030422
   7 F :   -0.217961
   8 H :   -0.017195
   9 H :   -0.015379
  10 H :   -0.013520

  Mayer bond orders larger than 0.100000
B(  0-C ,  1-C ) :   1.2970 B(  0-C ,  8-H ) :   0.8447 B(  0-C ,  9-H ) :   0.8528
B(  0-C , 10-H ) :   0.8542 B(  1-C ,  2-H ) :   0.9857 B(  1-C ,  3-H ) :   0.9836
B(  1-C ,  4-C ) :   1.1817 B(  1-C ,  6-H ) :   0.1009 B(  1-C ,  8-H ) :   0.1602
B(  1-C ,  9-H ) :   0.1574 B(  1-C , 10-H ) :   0.1680 B(  4-C ,  5-H ) :   0.9252
B(  4-C ,  6-H ) :   0.9243 B(  4-C ,  7-F ) :   0.6651

Dispersion correction           -0.005164205
FINAL SINGLE POINT ENERGY      -217.983874607657

DIPOLE MOMENT
-------------
                                X             Y             Z
Electronic contribution:      2.47043      -0.82104       5.75538
Nuclear contribution   :     -2.76068       0.49992      -6.33880
                        -----------------------------------------
Total Dipole Moment    :     -0.29025      -0.32112      -0.58343
                        -----------------------------------------
Magnitude (a.u.)       :      0.72647
Magnitude (Debye)      :      1.84653

Rotational constants in cm-1:     0.493380     0.165620     0.140427
Rotational constants in MHz : 14791.174622  4965.163858  4209.902284

                             ****ORCA TERMINATED NORMALLY****
TOTAL RUN TIME: 0 days 0 hours 0 minutes 8 seconds 555 msec
