                         Program Version 5.0.0 -  RELEASE  -
|  1> !PBE0 D3BJ RIJCOSX def2-SVPD def2/J TightSCF
|  2> *xyz 0 1
|  3> C          3.48828        1.60092       -1.52204
|  4> C          4.34297        1.31342       -2.75683
|  5> C          2.81029        0.42878       -1.01420
|  6> H          5.13203        0.60499       -2.48447
|  7> C          3.53590        0.74925       -3.92460
|  8> H          4.84125        2.24214       -3.05408
|  9> H          2.71455        2.33145       -1.76030
| 10> H          4.09099        2.06315       -0.73338
| 11> C          3.29098       -0.41802       -0.12908
| 12> N          2.51754       -1.43202        0.23936
| 13> N          4.53549       -0.28441        0.39580
| 14> H          5.04363        0.57189        0.22290
| 15> H          4.72335       -0.73327        1.28180
| 16> H          1.93479        0.10230       -1.40379
| 17> H          1.67464       -1.50562       -0.31610
| 18> H          2.92850       -2.21850        0.72549
| 19> H          4.18704        0.56990       -4.75451
| 20> H          2.78096        1.45217       -4.20898
| 21> H          3.07436       -0.16949       -3.62832
| 22> *
| 23> %MaxCore 64000
| 24>
| 25> %pal nprocs 4
| 26> end
| 27>
| 28> %scf
| 29>   MaxIter 150
| 30> end
| 31>
| 32>
| 33>                          ****END OF INPUT****

CARTESIAN COORDINATES (ANGSTROEM)
---------------------------------
  C      3.488280    1.600920   -1.522040
  C      4.342970    1.313420   -2.756830
  C      2.810290    0.428780   -1.014200
  H      5.132030    0.604990   -2.484470
  C      3.535900    0.749250   -3.924600
  H      4.841250    2.242140   -3.054080
  H      2.714550    2.331450   -1.760300
  H      4.090990    2.063150   -0.733380
  C      3.290980   -0.418020   -0.129080
  N      2.517540   -1.432020    0.239360
  N      4.535490   -0.284410    0.395800
  H      5.043630    0.571890    0.222900
  H      4.723350   -0.733270    1.281800
  H      1.934790    0.102300   -1.403790
  H      1.674640   -1.505620   -0.316100
  H      2.928500   -2.218500    0.725490
  H      4.187040    0.569900   -4.754510
  H      2.780960    1.452170   -4.208980
  H      3.074360   -0.169490   -3.628320

 Total Charge           Charge          ....    0
 Multiplicity           Mult            ....    1
 Number of Electrons    NEL             ....   56
 Basis Dimension        Dim             ....  236

ORBITAL ENERGIES
----------------

  NO   OCC          E(Eh)            E(eV)
   0   2.0000     -14.397977      -391.7889
   1   2.0000     -14.393616      -391.6702
   2   2.0000     -10.273231      -279.5488
   3   2.0000     -10.210901      -277.8527
   4   2.0000     -10.209534      -277.8156
   5   2.0000     -10.199697      -277.5479
   6   2.0000     -10.158634      -276.4305
   7   2.0000      -0.979125       -26.6434
   8   2.0000      -0.888525       -24.1780
   9   2.0000      -0.805318       -21.9138
  10   2.0000      -0.738983       -20.1088
  11   2.0000      -0.674204       -18.3460
  12   2.0000      -0.609600       -16.5880
  13   2.0000      -0.586427       -15.9575
  14   2.0000      -0.555180       -15.1072
  15   2.0000      -0.521665       -14.1952
  16   2.0000      -0.482892       -13.1402
  17   2.0000      -0.456401       -12.4193
  18   2.0000      -0.453709       -12.3460
  19   2.0000      -0.421466       -11.4687
  20   2.0000      -0.406384       -11.0583
  21   2.0000      -0.387694       -10.5497
  22   2.0000      -0.373682       -10.1684
  23   2.0000      -0.342564        -9.3216
  24   2.0000      -0.327416        -8.9094
  25   2.0000      -0.324446        -8.8286
  26   2.0000      -0.279495        -7.6054
  27   2.0000      -0.174825        -4.7572
  28   0.0000       0.021701         0.5905
  29   0.0000       0.047102         1.2817
  30   0.0000       0.048815         1.3283
  31   0.0000       0.065703         1.7879
  32   0.0000       0.075819         2.0631

MULLIKEN ATOMIC CHARGES
-----------------------
   0 C :    0.179002
   1 C :   -0.425797
   2 C :   -0.285366
   3 H :   -0.019199
   4 C :    0.540585
   5 H :   -0.009905
   6 H :    0.014291
   7 H :   -0.011746
   8 C :    0.813907
   9 N :   -0.163494
  10 N :   -0.169080
  11 H :    0.001034
  12 H :   -0.212440
  13 H :   -0.180393
  14 H :    0.087839
  15 H :   -0.164245
  16 H :   -0.007180
  17 H :    0.049599
  18 H :   -0.037410
Sum of atomic charges:   -0.0000000

LOEWDIN ATOMIC CHARGES
----------------------
   0 C :   -0.065664
   1 C :   -0.082887
   2 C :   -0.039955
   3 H :    0.018171
   4 C :    0.113596
   5 H :    0.015077
   6 H :    0.019259
   7 H :    0.008118
   8 C :   -0.215084
   9 N :    0.168814
  10 N :    0.199656
  11 H :   -0.019301
  12 H :   -0.012499
  13 H :   -0.045287
  14 H :    0.003388
  15 H :   -0.003895
  16 H :   -0.020871
  17 H :   -0.016130
  18 H :   -0.024506

  Mayer bond orders larger than 0.100000
B(  0-C ,  1-C ) :   1.1079 B(  0-C ,  2-C ) :   1.1279 B(  0-C ,  3-H ) :   0.1329
B(  0-C ,  5-H ) :   0.1015 B(  0-C ,  6-H ) :   0.8379 B(  0-C ,  7-H ) :   0.8748
B(  0-C , 13-H ) :   0.2321 B(  1-C ,  3-H ) :   0.9727 B(  1-C ,  4-C ) :   1.3339
B(  1-C ,  5-H ) :   0.9493 B(  1-C , 16-H ) :   0.2005 B(  1-C , 17-H ) :   0.1947
B(  1-C , 18-H ) :   0.2015 B(  2-C ,  6-H ) :   0.1765 B(  2-C ,  7-H ) :   0.2289
B(  2-C ,  8-C ) :   1.7626 B(  2-C ,  9-N ) :   0.3232 B(  2-C , 10-N ) :   0.1734
B(  2-C , 13-H ) :   0.9123 B(  4-C , 16-H ) :   0.7937 B(  4-C , 17-H ) :   0.8089
B(  4-C , 18-H ) :   0.8502 B(  8-C ,  9-N ) :   0.7708 B(  8-C , 10-N ) :   0.8145
B(  8-C , 12-H ) :  -0.1041 B(  8-C , 13-H ) :   0.2066 B(  9-N , 10-N ) :   0.1261
B(  9-N , 14-H ) :   1.0153 B(  9-N , 15-H ) :   1.2228 B( 10-N , 11-H ) :   0.9891
B( 10-N , 12-H ) :   1.2811 B( 11-H , 12-H ) :  -0.1335 B( 14-H , 15-H ) :  -0.1322

Dispersion correction           -0.013887688
FINAL SINGLE POINT ENERGY      -306.676040205166

DIPOLE MOMENT
-------------
                                X             Y             Z
Electronic contribution:     -0.68810      -2.66735       5.56711
Nuclear contribution   :      0.88816       2.11069      -4.95634
                        -----------------------------------------
Total Dipole Moment    :      0.20006      -0.55666       0.61078
                        -----------------------------------------
Magnitude (a.u.)       :      0.85026
Magnitude (Debye)      :      2.16119

Rotational constants in cm-1:     0.162296     0.048922     0.043870
Rotational constants in MHz :  4865.524396  1466.649652  1315.198467

                             ****ORCA TERMINATED NORMALLY****
TOTAL RUN TIME: 0 days 0 hours 0 minutes 30 seconds 374 msec
