                         Program Version 5.0.0 -  RELEASE  -
|  1> !PBE0 D3BJ RIJCOSX def2-SVPD def2/J TightSCF
|  2> *xyz 0 1
|  3> C          3.48828        1.60092       -1.52204
|  4> C          4.34297        1.31342       -2.75683
|  5> N          2.81029        0.42878       -1.01420
|  6> H          5.13203        0.60499       -2.48447
|  7> C          3.53590        0.74925       -3.92460
|  8> H          4.84125        2.24214       -3.05408
|  9> H          2.71455        2.33145       -1.76030
| 10> H          4.09099        2.06315       -0.73338
| 11> C          3.29098       -0.41802       -0.12908
| 12> C          2.51754       -1.43202        0.23936
| 13> N          4.53549       -0.28441        0.39580
| 14> H          5.04363        0.57189        0.22290
| 15> H          4.72335       -0.73327        1.28180
| 16> H          1.93479        0.10230       -1.40379
| 17> H          1.67464       -1.50562       -0.31610
| 18> H          2.92850       -2.21850        0.72549
| 19> H          4.18704        0.56990       -4.75451
| 20> H          2.78096        1.45217       -4.20898
| 21> H          3.07436       -0.16949       -3.62832
| 22> *
| 23> %MaxCore 64000
| 24>
| 25> %pal nprocs 4
| 26> end
| 27>
| 28> %scf
| 29>   MaxIter 150
| 30> end
| 31>
| 32>
| 33>                          ****END OF INPUT****

CARTESIAN COORDINATES (ANGSTROEM)
---------------------------------
  C      3.488280    1.600920   -1.522040
  C      4.342970    1.313420   -2.756830
  N      2.810290    0.428780   -1.014200
  H      5.132030    0.604990   -2.484470
  C      3.535900    0.749250   -3.924600
  H      4.841250    2.242140   -3.054080
  H      2.714550    2.331450   -1.760300
  H      4.090990    2.063150   -0.733380
  C      3.290980   -0.418020   -0.129080
  C      2.517540   -1.432020    0.239360
  N      4.535490   -0.284410    0.395800
  H      5.043630    0.571890    0.222900
  H      4.723350   -0.733270    1.281800
  H      1.934790    0.102300   -1.403790
  H      1.674640   -1.505620   -0.316100
  H      2.928500   -2.218500    0.725490
  H      4.187040    0.569900   -4.754510
  H      2.780960    1.452170   -4.208980
  H      3.074360   -0.169490   -3.628320

 Total Charge           Charge          ....    0
 Multiplicity           Mult            ....    1
 Number of Electrons    NEL             ....   56
 Basis Dimension        Dim             ....  236

ORBITAL ENERGIES
----------------

  NO   OCC          E(Eh)            E(eV)
   0   2.0000     -14.398941      -391.8151
   1   2.0000     -14.396633      -391.7523
   2   2.0000     -10.276340      -279.6334
   3   2.0000     -10.274072      -279.5717
   4   2.0000     -10.234845      -278.5043
   5   2.0000     -10.220789      -278.1218
   6   2.0000     -10.142243      -275.9845
   7   2.0000      -0.989883       -26.9361
   8   2.0000      -0.901788       -24.5389
   9   2.0000      -0.810158       -22.0455
  10   2.0000      -0.744665       -20.2634
  11   2.0000      -0.685980       -18.6665
  12   2.0000      -0.624022       -16.9805
  13   2.0000      -0.605860       -16.4863
  14   2.0000      -0.549934       -14.9645
  15   2.0000      -0.517484       -14.0815
  16   2.0000      -0.495712       -13.4890
  17   2.0000      -0.470713       -12.8088
  18   2.0000      -0.457755       -12.4561
  19   2.0000      -0.426802       -11.6139
  20   2.0000      -0.402618       -10.9558
  21   2.0000      -0.399096       -10.8600
  22   2.0000      -0.390859       -10.6358
  23   2.0000      -0.363920        -9.9028
  24   2.0000      -0.362749        -9.8709
  25   2.0000      -0.353967        -9.6319
  26   2.0000      -0.270848        -7.3701
  27   2.0000      -0.172732        -4.7003
  28   0.0000       0.018920         0.5148
  29   0.0000       0.036949         1.0054
  30   0.0000       0.048129         1.3097
  31   0.0000       0.056786         1.5452
  32   0.0000       0.074673         2.0319

MULLIKEN ATOMIC CHARGES
-----------------------
   0 C :    0.739210
   1 C :   -0.488151
   2 N :   -0.495840
   3 H :    0.031694
   4 C :    0.555372
   5 H :   -0.057480
   6 H :   -0.238709
   7 H :   -0.058906
   8 C :    0.725305
   9 C :    0.354757
  10 N :   -0.051527
  11 H :   -0.143408
  12 H :   -0.121287
  13 H :   -0.253773
  14 H :   -0.138352
  15 H :   -0.343903
  16 H :   -0.028667
  17 H :    0.057720
  18 H :   -0.044055
Sum of atomic charges:    0.0000000

LOEWDIN ATOMIC CHARGES
----------------------
   0 C :    0.045363
   1 C :   -0.073999
   2 N :   -0.024135
   3 H :    0.019592
   4 C :    0.116288
   5 H :    0.020329
   6 H :    0.023661
   7 H :    0.013714
   8 C :   -0.226360
   9 C :    0.132775
  10 N :    0.197833
  11 H :   -0.032910
  12 H :    0.005189
  13 H :    0.032824
  14 H :   -0.101557
  15 H :   -0.094253
  16 H :   -0.016557
  17 H :   -0.016001
  18 H :   -0.021796

  Mayer bond orders larger than 0.100000
B(  0-C ,  1-C ) :   1.0896 B(  0-C ,  2-N ) :   0.8649 B(  0-C ,  3-H ) :   0.1020
B(  0-C ,  6-H ) :   0.8374 B(  0-C ,  7-H ) :   0.8891 B(  0-C , 13-H ) :  -0.2538
B(  1-C ,  3-H ) :   0.9412 B(  1-C ,  4-C ) :   1.3087 B(  1-C ,  5-H ) :   1.0186
B(  1-C ,  6-H ) :   0.1296 B(  1-C , 16-H ) :   0.1905 B(  1-C , 17-H ) :   0.1816
B(  1-C , 18-H ) :   0.1883 B(  2-N ,  6-H ) :   0.2169 B(  2-N ,  7-H ) :   0.1276
B(  2-N ,  8-C ) :   0.9762 B(  2-N ,  9-C ) :   0.2677 B(  2-N , 10-N ) :   0.1355
B(  2-N , 13-H ) :   1.3047 B(  4-C , 16-H ) :   0.8322 B(  4-C , 17-H ) :   0.8017
B(  4-C , 18-H ) :   0.8629 B(  8-C ,  9-C ) :   1.7001 B(  8-C , 10-N ) :   0.7939
B(  8-C , 12-H ) :  -0.1020 B(  8-C , 13-H ) :  -0.2076 B(  8-C , 14-H ) :   0.2199
B(  8-C , 15-H ) :   0.1968 B(  9-C , 10-N ) :   0.1979 B(  9-C , 14-H ) :   0.8208
B(  9-C , 15-H ) :   0.7833 B( 10-N , 11-H ) :   1.0441 B( 10-N , 12-H ) :   1.2162
B( 11-H , 12-H ) :  -0.1443

Dispersion correction           -0.013747631
FINAL SINGLE POINT ENERGY      -306.662532146695

DIPOLE MOMENT
-------------
                                X             Y             Z
Electronic contribution:     -0.28660      -0.79849       4.28001
Nuclear contribution   :      0.82404       1.70307      -4.68174
                        -----------------------------------------
Total Dipole Moment    :      0.53743       0.90459      -0.40173
                        -----------------------------------------
Magnitude (a.u.)       :      1.12628
Magnitude (Debye)      :      2.86277

Rotational constants in cm-1:     0.164049     0.050262     0.045260
Rotational constants in MHz :  4918.051182  1506.829450  1356.872102

                             ****ORCA TERMINATED NORMALLY****
TOTAL RUN TIME: 0 days 0 hours 0 minutes 30 seconds 43 msec
