                         Program Version 5.0.0 -  RELEASE  -
|  1> !PBE0 D3BJ RIJCOSX def2-SVPD def2/J TightSCF
|  2> *xyz 0 1
|  3> C          3.48828        1.60092       -1.52204
|  4> C          4.34297        1.31342       -2.75683
|  5> N          2.81029        0.42878       -1.01420
|  6> H          5.13203        0.60499       -2.48447
|  7> C          3.53590        0.74925       -3.92460
|  8> H          4.84125        2.24214       -3.05408
|  9> H          2.71455        2.33145       -1.76030
| 10> H          4.09099        2.06315       -0.73338
| 11> C          3.29098       -0.41802       -0.12908
| 12> N          2.51754       -1.43202        0.23936
| 13> C          4.53549       -0.28441        0.39580
| 14> H          5.04363        0.57189        0.22290
| 15> H          4.72335       -0.73327        1.28180
| 16> H          1.93479        0.10230       -1.40379
| 17> H          1.67464       -1.50562       -0.31610
| 18> H          2.92850       -2.21850        0.72549
| 19> H          4.18704        0.56990       -4.75451
| 20> H          2.78096        1.45217       -4.20898
| 21> H          3.07436       -0.16949       -3.62832
| 22> *
| 23> %MaxCore 64000
| 24>
| 25> %pal nprocs 4
| 26> end
| 27>
| 28> %scf
| 29>   MaxIter 150
| 30> end
| 31>
| 32>
| 33>                          ****END OF INPUT****

CARTESIAN COORDINATES (ANGSTROEM)
---------------------------------
  C      3.488280    1.600920   -1.522040
  C      4.342970    1.313420   -2.756830
  N      2.810290    0.428780   -1.014200
  H      5.132030    0.604990   -2.484470
  C      3.535900    0.749250   -3.924600
  H      4.841250    2.242140   -3.054080
  H      2.714550    2.331450   -1.760300
  H      4.090990    2.063150   -0.733380
  C      3.290980   -0.418020   -0.129080
  N      2.517540   -1.432020    0.239360
  C      4.535490   -0.284410    0.395800
  H      5.043630    0.571890    0.222900
  H      4.723350   -0.733270    1.281800
  H      1.934790    0.102300   -1.403790
  H      1.674640   -1.505620   -0.316100
  H      2.928500   -2.218500    0.725490
  H      4.187040    0.569900   -4.754510
  H      2.780960    1.452170   -4.208980
  H      3.074360   -0.169490   -3.628320

 Total Charge           Charge          ....    0
 Multiplicity           Mult            ....    1
 Number of Electrons    NEL             ....   56
 Basis Dimension        Dim             ....  236

ORBITAL ENERGIES
----------------

  NO   OCC          E(Eh)            E(eV)
   0   2.0000     -14.405357      -391.9897
   1   2.0000     -14.399338      -391.8259
   2   2.0000     -10.279201      -279.7113
   3   2.0000     -10.266831      -279.3747
   4   2.0000     -10.227620      -278.3077
   5   2.0000     -10.217495      -278.0322
   6   2.0000     -10.144175      -276.0370
   7   2.0000      -0.999383       -27.1946
   8   2.0000      -0.907954       -24.7067
   9   2.0000      -0.797711       -21.7068
  10   2.0000      -0.725521       -19.7424
  11   2.0000      -0.710573       -19.3357
  12   2.0000      -0.624394       -16.9906
  13   2.0000      -0.571264       -15.5449
  14   2.0000      -0.561701       -15.2847
  15   2.0000      -0.544937       -14.8285
  16   2.0000      -0.489555       -13.3215
  17   2.0000      -0.466758       -12.7011
  18   2.0000      -0.454250       -12.3608
  19   2.0000      -0.417550       -11.3621
  20   2.0000      -0.415323       -11.3015
  21   2.0000      -0.393578       -10.7098
  22   2.0000      -0.382039       -10.3958
  23   2.0000      -0.361473        -9.8362
  24   2.0000      -0.356373        -9.6974
  25   2.0000      -0.347315        -9.4509
  26   2.0000      -0.265376        -7.2212
  27   2.0000      -0.176121        -4.7925
  28   0.0000       0.013403         0.3647
  29   0.0000       0.041587         1.1316
  30   0.0000       0.051007         1.3880
  31   0.0000       0.057127         1.5545
  32   0.0000       0.074362         2.0235

MULLIKEN ATOMIC CHARGES
-----------------------
   0 C :    0.698117
   1 C :   -0.454572
   2 N :   -0.654130
   3 H :    0.017706
   4 C :    0.540613
   5 H :   -0.051704
   6 H :   -0.232307
   7 H :    0.075208
   8 C :    0.798204
   9 N :   -0.084139
  10 C :    0.354047
  11 H :   -0.051891
  12 H :   -0.479937
  13 H :   -0.301558
  14 H :   -0.093448
  15 H :   -0.055349
  16 H :   -0.028500
  17 H :    0.051189
  18 H :   -0.047550
Sum of atomic charges:    0.0000000

LOEWDIN ATOMIC CHARGES
----------------------
   0 C :    0.054025
   1 C :   -0.065638
   2 N :   -0.025141
   3 H :    0.022114
   4 C :    0.112216
   5 H :    0.022533
   6 H :    0.023440
   7 H :    0.021619
   8 C :   -0.233548
   9 N :    0.180894
  10 C :    0.154503
  11 H :   -0.124208
  12 H :   -0.105830
  13 H :    0.020721
  14 H :   -0.011554
  15 H :    0.015942
  16 H :   -0.017272
  17 H :   -0.018010
  18 H :   -0.026806

  Mayer bond orders larger than 0.100000
B(  0-C ,  1-C ) :   1.0826 B(  0-C ,  2-N ) :   0.8341 B(  0-C ,  3-H ) :   0.1177
B(  0-C ,  6-H ) :   0.8920 B(  0-C ,  7-H ) :   0.8517 B(  0-C , 13-H ) :  -0.2283
B(  1-C ,  3-H ) :   0.9492 B(  1-C ,  4-C ) :   1.3023 B(  1-C ,  5-H ) :   1.0183
B(  1-C ,  6-H ) :   0.1142 B(  1-C , 16-H ) :   0.1884 B(  1-C , 17-H ) :   0.1781
B(  1-C , 18-H ) :   0.1815 B(  2-N ,  6-H ) :   0.1785 B(  2-N ,  7-H ) :   0.1075
B(  2-N ,  8-C ) :   0.7403 B(  2-N ,  9-N ) :   0.2046 B(  2-N , 10-C ) :   0.3730
B(  2-N , 13-H ) :   1.4297 B(  4-C , 16-H ) :   0.8348 B(  4-C , 17-H ) :   0.8060
B(  4-C , 18-H ) :   0.8698 B(  6-H ,  7-H ) :  -0.1054 B(  8-C ,  9-N ) :   0.7805
B(  8-C , 10-C ) :   1.7494 B(  8-C , 11-H ) :   0.2711 B(  8-C , 12-H ) :   0.2010
B(  8-C , 13-H ) :  -0.2912 B(  9-N , 10-C ) :   0.2532 B(  9-N , 14-H ) :   1.0780
B(  9-N , 15-H ) :   1.1851 B( 10-C , 11-H ) :   0.6698 B( 10-C , 12-H ) :   0.8338
B( 14-H , 15-H ) :  -0.1268

Dispersion correction           -0.013812981
FINAL SINGLE POINT ENERGY      -306.662673112805

DIPOLE MOMENT
-------------
                                X             Y             Z
Electronic contribution:     -2.21325      -2.03039       4.07322
Nuclear contribution   :      1.26608       1.95446      -4.64747
                        -----------------------------------------
Total Dipole Moment    :     -0.94717      -0.07593      -0.57425
                        -----------------------------------------
Magnitude (a.u.)       :      1.11025
Magnitude (Debye)      :      2.82204

Rotational constants in cm-1:     0.166109     0.049557     0.044716
Rotational constants in MHz :  4979.835529  1485.675017  1340.540851

                             ****ORCA TERMINATED NORMALLY****
TOTAL RUN TIME: 0 days 0 hours 0 minutes 30 seconds 371 msec
